  Input file(s): vmc_long.in.xml 

=====================================================
                    QMCPACK 3.8.9

       (c) Copyright 2003-  QMCPACK developers

                    Please cite:
 J. Kim et al. J. Phys. Cond. Mat. 30 195901 (2018)
      https://doi.org/10.1088/1361-648X/aab9c3

  Git branch: PhaseFactor
  Last git commit: 73edd22f68a0ce98f7086d8cdd35bc6cac91ea5e-dirty
  Last git commit date: Tue Oct 1 17:30:35 2019 -0500
  Last git commit subject: New files
=====================================================
  Global options 

  Total number of MPI ranks = 1
  Number of MPI groups      = 1
  MPI group ID              = 0
  Number of ranks in group  = 1
  MPI ranks per node        = 1
  OMP 1st level threads     = 1
  OMP nested threading disabled or only 1 thread on the 2nd level

  Precision used in this calculation, see definitions in the manual:
  Base precision      = double
  Full precision      = double

  Structure-of-arrays (SoA) optimization enabled

  Input XML = vmc_long.in.xml

  Project = vmc_long
  date    = 2019-10-02 12:10:56 CDT
  host    = abenali

 Random Number
 -------------
  Offset for the random number seeds based on time: 544

  Range of prime numbers to use as seeds over processors and threads = 3931-3943


 Lattice
 -------
  Simulation cell radius   = 1.889726 bohr
  Wigner-Seitz cell radius = 1.889726 bohr

  Lattice (bohr):      3.7794522700      0.0000000000      0.0000000000
                       0.0000000000      3.7794522700      0.0000000000
                       0.0000000000      0.0000000000      3.7794522700

  Boundary Conditions:  p  p  p 

  Volume (bohr^3) = 53.9866768459

  Reciprocal vectors without 2*pi.
    g_1 =       0.2645886040      0.0000000000      0.0000000000
    g_2 =       0.0000000000      0.2645886040      0.0000000000
    g_3 =       0.0000000000      0.0000000000      0.2645886040

  Metric tensor in real-space.
    h_1 = 14.2842594612 0.0000000000 0.0000000000 
    h_2 = 0.0000000000 14.2842594612 0.0000000000 
    h_3 = 0.0000000000 0.0000000000 14.2842594612 

  Metric tensor in g-space.
    h_1 = 2.7637706884 0.0000000000 0.0000000000 
    h_2 = 0.0000000000 2.7637706884 0.0000000000 
    h_3 = 0.0000000000 0.0000000000 2.7637706884 
 Particle Set 
 ------------
  Name: ion0
  Initializing the lattice by the global supercell
  All the species have the same mass 1.0000000000
  Long-range breakup parameters:
    rc*kc = 15.0000000000; rc = 1.8897261350; kc = 7.9376581200

  Creating Structure Factor for periodic systems 7.9376581200
  KContainer initialised with cutoff 7.9376581200
   # of K-shell  = 21
   # of K points = 460

  Particle set size: 2

 Particle Set 
 ------------
  Name: e
  Initializing the lattice by the global supercell
  All the species have the same mass 1.0000000000
  Long-range breakup parameters:
    rc*kc = 15.0000000000; rc = 1.8897261350; kc = 7.9376581200

  Creating Structure Factor for periodic systems 7.9376581200
  KContainer initialised with cutoff 7.9376581200
   # of K-shell  = 21
   # of K points = 460

  Particle set size: 2

 Wavefunction setup: 
 ------------------- 
  Name: psi0
  LCAO: SoaAtomicBasisSet<MultiQuintic,1>
Reading BasisSet from HDF5 file:S1-twist0.h5
<input node="atomicBasisSet" name="gaussian" expandYlm="pyscf" angular="spherical" elementType="H" normalized="no" type="Numerical" expM="0" />
  AO BasisSet for H
   Spherical Harmonics contain (-1)^m factor
   Angular momentum m expanded as -l, ... ,l, with the exception of L=1 (1,-1,0)
   Grid is created by the input paremters in h5
    Using log grid ri = 0.0000010000 rf = 100.0000000000 npts = 1001
   R(n,l,m,s) 0 0 0 0
Expanding Ylm as L=1 as (1,-1,0) and L>1 as -l,-l+1,...,l-1,l
   Adding 1 spherical orbitals
  Setting cutoff radius 27.3603251807

   Maximum Angular Momentum  = 0
   Number of Radial functors = 1
   Basis size                = 1

  Created SPOSet builder named 'LCAOBSet' of type molecularorbital
Reuse SPOSetBuilder "LCAOBSet" type MolecularOrbital
  Building SPOSet '' with '' basis set.
Reuse SPOSetBuilder "LCAOBSet" type MolecularOrbital
  Building SPOSet '' with '' basis set.
  Creating a determinant updet group=0 sposet=updet
  Reusing a SPO set updet
Using DiracDeterminant with DelayedUpdate engine
Using rank-1 Sherman-Morrison Fahy update

  Creating a determinant downdet group=1 sposet=downdet
  Reusing a SPO set downdet
Using DiracDeterminant with DelayedUpdate engine
Using rank-1 Sherman-Morrison Fahy update

  Added a fermionic WaveFunctionComponent SlaterDet
  QMCHamiltonian::addOperator Kinetic to H, physical Hamiltonian 

  Creating CoulombHandler with the optimal breakup. 
  KContainer initialised with cutoff 49.8737768728
   # of K-shell  = 752
   # of K points = 112930

  NUMBER OF OPT_BREAK KVECS = 29180498243
 finding kc:  7.9376581200 , -1.0000000000
  LRBreakp parameter Kc =7.9376581200
    Continuum approximation in k = [49.8737768728,3175.0632479875)

   LR Breakup chi^2 = 1.48379e-15
   PBCAA self-interaction term -1.62165
   PBCAA total constant -1.67523
  Maximum K shell 20
  Number of k vectors 460
  Fixed Coulomb potential for e
    e-e Madelung Const. =-0.36196
    Vtot     =0.00000
  QMCHamiltonian::addOperator ElecElec to H, physical Hamiltonian 
QMCHamiltonian::addOperatorType added type coulomb named ElecElec
  Clone CoulombHandler. 
   PBCAA self-interaction term -1.62165
   PBCAA total constant -1.67523
  Maximum K shell 20
  Number of k vectors 460
  Fixed Coulomb potential for ion0
    e-e Madelung Const. =-0.36196
    Vtot     =-0.96290
  QMCHamiltonian::addOperator IonIon to H, physical Hamiltonian 
QMCHamiltonian::addOperatorType added type coulomb named IonIon

  ECPotential builder for pseudopotential 

  Adding pseudopotential for H
   Linear grid  ri=0.00000 rf=10.00000 npts = 10001
    ECPComponentBuilder::buildSemiLocalAndLocal 
    Assuming Hartree unit
   Number of angular momentum channels 2
   Maximum angular momentum channel 1
   Creating a Linear Grid Rmax=0.00000
  Using global grid with delta = 0.00100
   Making L=1 a local potential with a radial cutoff of 9.99900
    Non-local pseudopotential parameters
    Maximum angular mementum = 0
    Number of non-local channels = 1
       l(0)=0
    Cutoff radius = 0.00100
    Spherical grids and weights: 
             1.0000000000      0.0000000000      0.0000000000        0.0833333333
            -1.0000000000      0.0000000000      0.0000000000        0.0833333333
             0.4472135955      0.8944271910      0.0000000000        0.0833333333
            -0.4472135955      0.7236067977      0.5257311121        0.0833333333
             0.4472135955      0.2763932023      0.8506508084        0.0833333333
            -0.4472135955     -0.2763932023      0.8506508084        0.0833333333
             0.4472135955     -0.7236067977      0.5257311121        0.0833333333
            -0.4472135955     -0.8944271910      0.0000000000        0.0833333333
             0.4472135955     -0.7236067977     -0.5257311121        0.0833333333
            -0.4472135955     -0.2763932023     -0.8506508084        0.0833333333
             0.4472135955      0.2763932023     -0.8506508084        0.0833333333
            -0.4472135955      0.7236067977     -0.5257311121        0.0833333333
    Maximum cutoff radius 0.0010000000
  Clone CoulombHandler. 
   Constant of PBCAB 0.1071572759
  Rcut                1.8897261350
  Maximum K shell     20
  Number of k vectors 460
    CoulombPBCAB::add 
 Setting a linear grid=[0,1.8897261350) number of grid =1890
    Creating the short-range pseudopotential for species 0
  QMCHamiltonian::addOperator LocalECP to H, physical Hamiltonian 

  Using NonLocalECP potential 
    Maximum grid on a sphere for NonLocalECPotential: 12
  QMCHamiltonian::addOperator NonLocalECP to H, physical Hamiltonian 
QMCHamiltonian::addOperatorType added type pseudo named PseudoPot

  QMCHamiltonian::add2WalkerProperty added
    5 to P::PropertyList 
    0 to P::Collectables 
    starting Index of the observables in P::PropertyList = 9
ParticleSetPool::randomize 
<init source="ion0" target="e">
</init>
  Initialization Execution time = 0.5169 secs
=========================================================
 Summary of QMC systems 
=========================================================
ParticleSetPool has: 

  ParticleSet 'e' contains 2 particles :  u(1) d(1)

    u  2.8278585679e+00  8.9781061221e-01  3.7292859770e+00
    d  6.4762310648e-01  1.9244468834e+00  1.4773116949e+00

  Distance table for dissimilar particles (A-B):
    source: ion0  target: e
    Using structure-of-arrays (SoA) data layout
    Distance computations use orthorhombic periodic cell in 3D.

  Distance table for similar particles (A-A):
    source/target: e
    Using structure-of-arrays (SoA) data layout
    Distance computations use orthorhombic periodic cell in 3D.


  ParticleSet 'ion0' contains 2 particles :  H(2)

    H  0.0000000000e+00  0.0000000000e+00  0.0000000000e+00
    H  1.8897261300e+00  1.8897261300e+00  1.8897261400e+00

  Distance table for similar particles (A-A):
    source/target: ion0
    Using structure-of-arrays (SoA) data layout
    Distance computations use orthorhombic periodic cell in 3D.


  Hamiltonian h0
  Kinetic         Kinetic energy
  ElecElec        CoulombPBCAA potential: e_e
  IonIon          CoulombPBCAA potential: ion0_ion0
  LocalECP        CoulombPBCAB potential source: ion0
  NonLocalECP     NonLocalECPotential: ion0


=========================================================
  Start VMC
  File Root vmc_long.s000 append = no 
=========================================================
  Adding 16 walkers to 0 existing sets
  Total number of walkers: 1.6000000000e+01
  Total weight: 1.6000000000e+01
  Resetting Properties of the walkers 1 x 14

<vmc function="put">
  qmc_counter=0  my_counter=0
  time step      = 3.0000000000e-01
  blocks         = 10000
  steps          = 20
  substeps       = 2
  current        = 0
  target samples = 0.0000000000e+00
  walkers/mpi    = 16

  stepsbetweensamples = 200020
<parameter name="blocks" condition="int">10000</parameter>
<parameter name="blocks_between_recompute" condition="int">0</parameter>
<parameter name="check_properties" condition="int">100</parameter>
<parameter name="checkproperties" condition="int">100</parameter>
<parameter name="current" condition="int">0</parameter>
<parameter name="dmcwalkersperthread" condition="real">0.0000000000e+00</parameter>
<parameter name="maxcpusecs" condition="real">3.6000000000e+05</parameter>
<parameter name="record_configs" condition="int">0</parameter>
<parameter name="record_walkers" condition="int">200020</parameter>
<parameter name="recordconfigs" condition="int">0</parameter>
<parameter name="recordwalkers" condition="int">200020</parameter>
<parameter name="rewind" condition="int">0</parameter>
<parameter name="samples" condition="real">0.0000000000e+00</parameter>
<parameter name="samplesperthread" condition="real">0.0000000000e+00</parameter>
<parameter name="steps" condition="int">20</parameter>
<parameter name="stepsbetweensamples" condition="int">200020</parameter>
<parameter name="store_configs" condition="int">0</parameter>
<parameter name="storeconfigs" condition="int">0</parameter>
<parameter name="sub_steps" condition="int">2</parameter>
<parameter name="substeps" condition="int">2</parameter>
<parameter name="tau" condition="au">3.0000000000e-01</parameter>
<parameter name="time_step" condition="au">3.0000000000e-01</parameter>
<parameter name="timestep" condition="au">3.0000000000e-01</parameter>
<parameter name="use_drift" condition="string">yes</parameter>
<parameter name="usedrift" condition="string">yes</parameter>
<parameter name="walkers" condition="int">16</parameter>
<parameter name="warmup_steps" condition="int">20</parameter>
<parameter name="warmupsteps" condition="int">20</parameter>
  DumpConfig==false Nothing (configurations, state) will be saved.
  Walker Samples are dumped every 200020 steps.
</vmc>
  Set drift_modifier UNR parameter a = 1.0000000000e+00
  Adding a default LocalEnergyEstimator for the MainEstimator 
  Initial partition of walkers 0 16 

  Using Particle by Particle moves
  Walker moves with drift
  Total Sample Size   =0
  Walker distribution on root = 0 16 
  Using Locality Approximation
===============================>Yes
 #scale     #X    #Y    #Z  #VAL 
-3  -3  -3  1.9638610069e+01  1.1338356810e+01  1.1338356810e+01  1.1338356810e+01  2.8209479177e-01  5.4464696209e-26  (1.5364207136e-26,-0.0000000000e+00)
-3  -3  -3  0.0000000000e+00  -1.1338356810e+01
-3  -3  -3  0.0000000000e+00  -1.1338356810e+01
-3  -3  -3  0.0000000000e+00  -1.1338356810e+01
-3  -3  -2  1.7727202491e+01  1.1338356810e+01  1.1338356810e+01  7.5589045400e+00  2.8209479177e-01  2.0066592645e-21  (5.6606812738e-22,-0.0000000000e+00)
-3  -3  -2  0.0000000000e+00  -1.1338356810e+01
-3  -3  -2  0.0000000000e+00  -1.1338356810e+01
-3  -3  -2  0.0000000000e+00  -7.5589045400e+00
-3  -3  -1  1.6474250507e+01  1.1338356810e+01  1.1338356810e+01  3.7794522700e+00  2.8209479177e-01  1.1022719706e-18  (3.1094518201e-19,-0.0000000000e+00)
-3  -3  -1  0.0000000000e+00  -1.1338356810e+01
-3  -3  -1  0.0000000000e+00  -1.1338356810e+01
-3  -3  -1  0.0000000000e+00  -3.7794522700e+00
-3  -3  0  1.6034857976e+01  1.1338356810e+01  1.1338356810e+01  0.0000000000e+00  2.8209479177e-01  9.0273540109e-18  (2.5465695500e-18,0.0000000000e+00)
-3  -3  0  0.0000000000e+00  -1.1338356810e+01
-3  -3  0  0.0000000000e+00  -1.1338356810e+01
-3  -3  0  0.0000000000e+00  0.0000000000e+00
-3  -3  1  1.6474250507e+01  1.1338356810e+01  1.1338356810e+01  -3.7794522700e+00  2.8209479177e-01  1.1022719706e-18  (3.1094518201e-19,0.0000000000e+00)
-3  -3  1  0.0000000000e+00  -1.1338356810e+01
-3  -3  1  0.0000000000e+00  -1.1338356810e+01
-3  -3  1  0.0000000000e+00  3.7794522700e+00
-3  -3  2  1.7727202491e+01  1.1338356810e+01  1.1338356810e+01  -7.5589045400e+00  2.8209479177e-01  2.0066592645e-21  (5.6606812738e-22,0.0000000000e+00)
-3  -3  2  0.0000000000e+00  -1.1338356810e+01
-3  -3  2  0.0000000000e+00  -1.1338356810e+01
-3  -3  2  0.0000000000e+00  7.5589045400e+00
-3  -3  3  1.9638610069e+01  1.1338356810e+01  1.1338356810e+01  -1.1338356810e+01  2.8209479177e-01  5.4464696209e-26  (1.5364207136e-26,0.0000000000e+00)
-3  -3  3  0.0000000000e+00  -1.1338356810e+01
-3  -3  3  0.0000000000e+00  -1.1338356810e+01
-3  -3  3  0.0000000000e+00  1.1338356810e+01
-3  -2  -3  1.7727202491e+01  1.1338356810e+01  7.5589045400e+00  1.1338356810e+01  2.8209479177e-01  2.0066592645e-21  (5.6606812738e-22,-0.0000000000e+00)
-3  -2  -3  0.0000000000e+00  -1.1338356810e+01
-3  -2  -3  0.0000000000e+00  -7.5589045400e+00
-3  -2  -3  0.0000000000e+00  -1.1338356810e+01
-3  -2  -2  1.5583080916e+01  1.1338356810e+01  7.5589045400e+00  7.5589045400e+00  2.8209479177e-01  7.3931953853e-17  (2.0855819128e-17,-0.0000000000e+00)
-3  -2  -2  0.0000000000e+00  -1.1338356810e+01
-3  -2  -2  0.0000000000e+00  -7.5589045400e+00
-3  -2  -2  0.0000000000e+00  -7.5589045400e+00
-3  -2  -1  1.4141415504e+01  1.1338356810e+01  7.5589045400e+00  3.7794522700e+00  2.8209479177e-01  4.0611339429e-14  (1.1456247340e-14,-0.0000000000e+00)
-3  -2  -1  0.0000000000e+00  -1.1338356810e+01
-3  -2  -1  0.0000000000e+00  -7.5589045400e+00
-3  -2  -1  0.0000000000e+00  -3.7794522700e+00
-3  -2  0  1.3627008953e+01  1.1338356810e+01  7.5589045400e+00  0.0000000000e+00  2.8209479177e-01  3.3259753285e-13  (9.3824031773e-14,0.0000000000e+00)
-3  -2  0  0.0000000000e+00  -1.1338356810e+01
-3  -2  0  0.0000000000e+00  -7.5589045400e+00
-3  -2  0  0.0000000000e+00  0.0000000000e+00
-3  -2  1  1.4141415504e+01  1.1338356810e+01  7.5589045400e+00  -3.7794522700e+00  2.8209479177e-01  4.0611339429e-14  (1.1456247340e-14,0.0000000000e+00)
-3  -2  1  0.0000000000e+00  -1.1338356810e+01
-3  -2  1  0.0000000000e+00  -7.5589045400e+00
-3  -2  1  0.0000000000e+00  3.7794522700e+00
-3  -2  2  1.5583080916e+01  1.1338356810e+01  7.5589045400e+00  -7.5589045400e+00  2.8209479177e-01  7.3931953853e-17  (2.0855819128e-17,0.0000000000e+00)
-3  -2  2  0.0000000000e+00  -1.1338356810e+01
-3  -2  2  0.0000000000e+00  -7.5589045400e+00
-3  -2  2  0.0000000000e+00  7.5589045400e+00
-3  -2  3  1.7727202491e+01  1.1338356810e+01  7.5589045400e+00  -1.1338356810e+01  2.8209479177e-01  2.0066592645e-21  (5.6606812738e-22,0.0000000000e+00)
-3  -2  3  0.0000000000e+00  -1.1338356810e+01
-3  -2  3  0.0000000000e+00  -7.5589045400e+00
-3  -2  3  0.0000000000e+00  1.1338356810e+01
-3  -1  -3  1.6474250507e+01  1.1338356810e+01  3.7794522700e+00  1.1338356810e+01  2.8209479177e-01  1.1022719706e-18  (3.1094518201e-19,-0.0000000000e+00)
-3  -1  -3  0.0000000000e+00  -1.1338356810e+01
-3  -1  -3  0.0000000000e+00  -3.7794522700e+00
-3  -1  -3  0.0000000000e+00  -1.1338356810e+01
-3  -1  -2  1.4141415504e+01  1.1338356810e+01  3.7794522700e+00  7.5589045400e+00  2.8209479177e-01  4.0611339429e-14  (1.1456247340e-14,-0.0000000000e+00)
-3  -1  -2  0.0000000000e+00  -1.1338356810e+01
-3  -1  -2  0.0000000000e+00  -3.7794522700e+00
-3  -1  -2  0.0000000000e+00  -7.5589045400e+00
-3  -1  -1  1.2535025093e+01  1.1338356810e+01  3.7794522700e+00  3.7794522700e+00  2.8209479177e-01  2.2308092838e-11  (6.2929968041e-12,-0.0000000000e+00)
-3  -1  -1  0.0000000000e+00  -1.1338356810e+01
-3  -1  -1  0.0000000000e+00  -3.7794522700e+00
-3  -1  -1  0.0000000000e+00  -3.7794522700e+00
-3  -1  0  1.1951677481e+01  1.1338356810e+01  3.7794522700e+00  0.0000000000e+00  2.8209479177e-01  1.8269815143e-10  (5.1538196986e-11,0.0000000000e+00)
-3  -1  0  0.0000000000e+00  -1.1338356810e+01
-3  -1  0  0.0000000000e+00  -3.7794522700e+00
-3  -1  0  0.0000000000e+00  0.0000000000e+00
-3  -1  1  1.2535025093e+01  1.1338356810e+01  3.7794522700e+00  -3.7794522700e+00  2.8209479177e-01  2.2308092838e-11  (6.2929968041e-12,0.0000000000e+00)
-3  -1  1  0.0000000000e+00  -1.1338356810e+01
-3  -1  1  0.0000000000e+00  -3.7794522700e+00
-3  -1  1  0.0000000000e+00  3.7794522700e+00
-3  -1  2  1.4141415504e+01  1.1338356810e+01  3.7794522700e+00  -7.5589045400e+00  2.8209479177e-01  4.0611339429e-14  (1.1456247340e-14,0.0000000000e+00)
-3  -1  2  0.0000000000e+00  -1.1338356810e+01
-3  -1  2  0.0000000000e+00  -3.7794522700e+00
-3  -1  2  0.0000000000e+00  7.5589045400e+00
-3  -1  3  1.6474250507e+01  1.1338356810e+01  3.7794522700e+00  -1.1338356810e+01  2.8209479177e-01  1.1022719706e-18  (3.1094518201e-19,0.0000000000e+00)
-3  -1  3  0.0000000000e+00  -1.1338356810e+01
-3  -1  3  0.0000000000e+00  -3.7794522700e+00
-3  -1  3  0.0000000000e+00  1.1338356810e+01
-3  0  -3  1.6034857976e+01  1.1338356810e+01  0.0000000000e+00  1.1338356810e+01  2.8209479177e-01  9.0273540109e-18  (2.5465695500e-18,0.0000000000e+00)
-3  0  -3  0.0000000000e+00  -1.1338356810e+01
-3  0  -3  0.0000000000e+00  0.0000000000e+00
-3  0  -3  0.0000000000e+00  -1.1338356810e+01
-3  0  -2  1.3627008953e+01  1.1338356810e+01  0.0000000000e+00  7.5589045400e+00  2.8209479177e-01  3.3259753285e-13  (9.3824031773e-14,0.0000000000e+00)
-3  0  -2  0.0000000000e+00  -1.1338356810e+01
-3  0  -2  0.0000000000e+00  0.0000000000e+00
-3  0  -2  0.0000000000e+00  -7.5589045400e+00
-3  0  -1  1.1951677481e+01  1.1338356810e+01  0.0000000000e+00  3.7794522700e+00  2.8209479177e-01  1.8269815143e-10  (5.1538196986e-11,0.0000000000e+00)
-3  0  -1  0.0000000000e+00  -1.1338356810e+01
-3  0  -1  0.0000000000e+00  0.0000000000e+00
-3  0  -1  0.0000000000e+00  -3.7794522700e+00
-3  0  0  1.1338356810e+01  1.1338356810e+01  0.0000000000e+00  0.0000000000e+00  2.8209479177e-01  1.4962558556e-09  (4.2208598403e-10,0.0000000000e+00)
-3  0  0  0.0000000000e+00  -1.1338356810e+01
-3  0  0  0.0000000000e+00  0.0000000000e+00
-3  0  0  0.0000000000e+00  0.0000000000e+00
-3  0  1  1.1951677481e+01  1.1338356810e+01  0.0000000000e+00  -3.7794522700e+00  2.8209479177e-01  1.8269815143e-10  (5.1538196986e-11,0.0000000000e+00)
-3  0  1  0.0000000000e+00  -1.1338356810e+01
-3  0  1  0.0000000000e+00  0.0000000000e+00
-3  0  1  0.0000000000e+00  3.7794522700e+00
-3  0  2  1.3627008953e+01  1.1338356810e+01  0.0000000000e+00  -7.5589045400e+00  2.8209479177e-01  3.3259753285e-13  (9.3824031773e-14,0.0000000000e+00)
-3  0  2  0.0000000000e+00  -1.1338356810e+01
-3  0  2  0.0000000000e+00  0.0000000000e+00
-3  0  2  0.0000000000e+00  7.5589045400e+00
-3  0  3  1.6034857976e+01  1.1338356810e+01  0.0000000000e+00  -1.1338356810e+01  2.8209479177e-01  9.0273540109e-18  (2.5465695500e-18,0.0000000000e+00)
-3  0  3  0.0000000000e+00  -1.1338356810e+01
-3  0  3  0.0000000000e+00  0.0000000000e+00
-3  0  3  0.0000000000e+00  1.1338356810e+01
-3  1  -3  1.6474250507e+01  1.1338356810e+01  -3.7794522700e+00  1.1338356810e+01  2.8209479177e-01  1.1022719706e-18  (3.1094518201e-19,0.0000000000e+00)
-3  1  -3  0.0000000000e+00  -1.1338356810e+01
-3  1  -3  0.0000000000e+00  3.7794522700e+00
-3  1  -3  0.0000000000e+00  -1.1338356810e+01
-3  1  -2  1.4141415504e+01  1.1338356810e+01  -3.7794522700e+00  7.5589045400e+00  2.8209479177e-01  4.0611339429e-14  (1.1456247340e-14,0.0000000000e+00)
-3  1  -2  0.0000000000e+00  -1.1338356810e+01
-3  1  -2  0.0000000000e+00  3.7794522700e+00
-3  1  -2  0.0000000000e+00  -7.5589045400e+00
-3  1  -1  1.2535025093e+01  1.1338356810e+01  -3.7794522700e+00  3.7794522700e+00  2.8209479177e-01  2.2308092838e-11  (6.2929968041e-12,0.0000000000e+00)
-3  1  -1  0.0000000000e+00  -1.1338356810e+01
-3  1  -1  0.0000000000e+00  3.7794522700e+00
-3  1  -1  0.0000000000e+00  -3.7794522700e+00
-3  1  0  1.1951677481e+01  1.1338356810e+01  -3.7794522700e+00  0.0000000000e+00  2.8209479177e-01  1.8269815143e-10  (5.1538196986e-11,0.0000000000e+00)
-3  1  0  0.0000000000e+00  -1.1338356810e+01
-3  1  0  0.0000000000e+00  3.7794522700e+00
-3  1  0  0.0000000000e+00  0.0000000000e+00
-3  1  1  1.2535025093e+01  1.1338356810e+01  -3.7794522700e+00  -3.7794522700e+00  2.8209479177e-01  2.2308092838e-11  (6.2929968041e-12,0.0000000000e+00)
-3  1  1  0.0000000000e+00  -1.1338356810e+01
-3  1  1  0.0000000000e+00  3.7794522700e+00
-3  1  1  0.0000000000e+00  3.7794522700e+00
-3  1  2  1.4141415504e+01  1.1338356810e+01  -3.7794522700e+00  -7.5589045400e+00  2.8209479177e-01  4.0611339429e-14  (1.1456247340e-14,0.0000000000e+00)
-3  1  2  0.0000000000e+00  -1.1338356810e+01
-3  1  2  0.0000000000e+00  3.7794522700e+00
-3  1  2  0.0000000000e+00  7.5589045400e+00
-3  1  3  1.6474250507e+01  1.1338356810e+01  -3.7794522700e+00  -1.1338356810e+01  2.8209479177e-01  1.1022719706e-18  (3.1094518201e-19,0.0000000000e+00)
-3  1  3  0.0000000000e+00  -1.1338356810e+01
-3  1  3  0.0000000000e+00  3.7794522700e+00
-3  1  3  0.0000000000e+00  1.1338356810e+01
-3  2  -3  1.7727202491e+01  1.1338356810e+01  -7.5589045400e+00  1.1338356810e+01  2.8209479177e-01  2.0066592645e-21  (5.6606812738e-22,0.0000000000e+00)
-3  2  -3  0.0000000000e+00  -1.1338356810e+01
-3  2  -3  0.0000000000e+00  7.5589045400e+00
-3  2  -3  0.0000000000e+00  -1.1338356810e+01
-3  2  -2  1.5583080916e+01  1.1338356810e+01  -7.5589045400e+00  7.5589045400e+00  2.8209479177e-01  7.3931953853e-17  (2.0855819128e-17,0.0000000000e+00)
-3  2  -2  0.0000000000e+00  -1.1338356810e+01
-3  2  -2  0.0000000000e+00  7.5589045400e+00
-3  2  -2  0.0000000000e+00  -7.5589045400e+00
-3  2  -1  1.4141415504e+01  1.1338356810e+01  -7.5589045400e+00  3.7794522700e+00  2.8209479177e-01  4.0611339429e-14  (1.1456247340e-14,0.0000000000e+00)
-3  2  -1  0.0000000000e+00  -1.1338356810e+01
-3  2  -1  0.0000000000e+00  7.5589045400e+00
-3  2  -1  0.0000000000e+00  -3.7794522700e+00
-3  2  0  1.3627008953e+01  1.1338356810e+01  -7.5589045400e+00  0.0000000000e+00  2.8209479177e-01  3.3259753285e-13  (9.3824031773e-14,0.0000000000e+00)
-3  2  0  0.0000000000e+00  -1.1338356810e+01
-3  2  0  0.0000000000e+00  7.5589045400e+00
-3  2  0  0.0000000000e+00  0.0000000000e+00
-3  2  1  1.4141415504e+01  1.1338356810e+01  -7.5589045400e+00  -3.7794522700e+00  2.8209479177e-01  4.0611339429e-14  (1.1456247340e-14,0.0000000000e+00)
-3  2  1  0.0000000000e+00  -1.1338356810e+01
-3  2  1  0.0000000000e+00  7.5589045400e+00
-3  2  1  0.0000000000e+00  3.7794522700e+00
-3  2  2  1.5583080916e+01  1.1338356810e+01  -7.5589045400e+00  -7.5589045400e+00  2.8209479177e-01  7.3931953853e-17  (2.0855819128e-17,0.0000000000e+00)
-3  2  2  0.0000000000e+00  -1.1338356810e+01
-3  2  2  0.0000000000e+00  7.5589045400e+00
-3  2  2  0.0000000000e+00  7.5589045400e+00
-3  2  3  1.7727202491e+01  1.1338356810e+01  -7.5589045400e+00  -1.1338356810e+01  2.8209479177e-01  2.0066592645e-21  (5.6606812738e-22,0.0000000000e+00)
-3  2  3  0.0000000000e+00  -1.1338356810e+01
-3  2  3  0.0000000000e+00  7.5589045400e+00
-3  2  3  0.0000000000e+00  1.1338356810e+01
-3  3  -3  1.9638610069e+01  1.1338356810e+01  -1.1338356810e+01  1.1338356810e+01  2.8209479177e-01  5.4464696209e-26  (1.5364207136e-26,0.0000000000e+00)
-3  3  -3  0.0000000000e+00  -1.1338356810e+01
-3  3  -3  0.0000000000e+00  1.1338356810e+01
-3  3  -3  0.0000000000e+00  -1.1338356810e+01
-3  3  -2  1.7727202491e+01  1.1338356810e+01  -1.1338356810e+01  7.5589045400e+00  2.8209479177e-01  2.0066592645e-21  (5.6606812738e-22,0.0000000000e+00)
-3  3  -2  0.0000000000e+00  -1.1338356810e+01
-3  3  -2  0.0000000000e+00  1.1338356810e+01
-3  3  -2  0.0000000000e+00  -7.5589045400e+00
-3  3  -1  1.6474250507e+01  1.1338356810e+01  -1.1338356810e+01  3.7794522700e+00  2.8209479177e-01  1.1022719706e-18  (3.1094518201e-19,0.0000000000e+00)
-3  3  -1  0.0000000000e+00  -1.1338356810e+01
-3  3  -1  0.0000000000e+00  1.1338356810e+01
-3  3  -1  0.0000000000e+00  -3.7794522700e+00
-3  3  0  1.6034857976e+01  1.1338356810e+01  -1.1338356810e+01  0.0000000000e+00  2.8209479177e-01  9.0273540109e-18  (2.5465695500e-18,0.0000000000e+00)
-3  3  0  0.0000000000e+00  -1.1338356810e+01
-3  3  0  0.0000000000e+00  1.1338356810e+01
-3  3  0  0.0000000000e+00  0.0000000000e+00
-3  3  1  1.6474250507e+01  1.1338356810e+01  -1.1338356810e+01  -3.7794522700e+00  2.8209479177e-01  1.1022719706e-18  (3.1094518201e-19,0.0000000000e+00)
-3  3  1  0.0000000000e+00  -1.1338356810e+01
-3  3  1  0.0000000000e+00  1.1338356810e+01
-3  3  1  0.0000000000e+00  3.7794522700e+00
-3  3  2  1.7727202491e+01  1.1338356810e+01  -1.1338356810e+01  -7.5589045400e+00  2.8209479177e-01  2.0066592645e-21  (5.6606812738e-22,0.0000000000e+00)
-3  3  2  0.0000000000e+00  -1.1338356810e+01
-3  3  2  0.0000000000e+00  1.1338356810e+01
-3  3  2  0.0000000000e+00  7.5589045400e+00
-3  3  3  1.9638610069e+01  1.1338356810e+01  -1.1338356810e+01  -1.1338356810e+01  2.8209479177e-01  5.4464696209e-26  (1.5364207136e-26,0.0000000000e+00)
-3  3  3  0.0000000000e+00  -1.1338356810e+01
-3  3  3  0.0000000000e+00  1.1338356810e+01
-3  3  3  0.0000000000e+00  1.1338356810e+01
-2  -3  -3  1.7727202491e+01  7.5589045400e+00  1.1338356810e+01  1.1338356810e+01  2.8209479177e-01  2.0066592645e-21  (5.6606812738e-22,-0.0000000000e+00)
-2  -3  -3  0.0000000000e+00  -7.5589045400e+00
-2  -3  -3  0.0000000000e+00  -1.1338356810e+01
-2  -3  -3  0.0000000000e+00  -1.1338356810e+01
-2  -3  -2  1.5583080916e+01  7.5589045400e+00  1.1338356810e+01  7.5589045400e+00  2.8209479177e-01  7.3931953853e-17  (2.0855819128e-17,-0.0000000000e+00)
-2  -3  -2  0.0000000000e+00  -7.5589045400e+00
-2  -3  -2  0.0000000000e+00  -1.1338356810e+01
-2  -3  -2  0.0000000000e+00  -7.5589045400e+00
-2  -3  -1  1.4141415504e+01  7.5589045400e+00  1.1338356810e+01  3.7794522700e+00  2.8209479177e-01  4.0611339429e-14  (1.1456247340e-14,-0.0000000000e+00)
-2  -3  -1  0.0000000000e+00  -7.5589045400e+00
-2  -3  -1  0.0000000000e+00  -1.1338356810e+01
-2  -3  -1  0.0000000000e+00  -3.7794522700e+00
-2  -3  0  1.3627008953e+01  7.5589045400e+00  1.1338356810e+01  0.0000000000e+00  2.8209479177e-01  3.3259753285e-13  (9.3824031773e-14,0.0000000000e+00)
-2  -3  0  0.0000000000e+00  -7.5589045400e+00
-2  -3  0  0.0000000000e+00  -1.1338356810e+01
-2  -3  0  0.0000000000e+00  0.0000000000e+00
-2  -3  1  1.4141415504e+01  7.5589045400e+00  1.1338356810e+01  -3.7794522700e+00  2.8209479177e-01  4.0611339429e-14  (1.1456247340e-14,0.0000000000e+00)
-2  -3  1  0.0000000000e+00  -7.5589045400e+00
-2  -3  1  0.0000000000e+00  -1.1338356810e+01
-2  -3  1  0.0000000000e+00  3.7794522700e+00
-2  -3  2  1.5583080916e+01  7.5589045400e+00  1.1338356810e+01  -7.5589045400e+00  2.8209479177e-01  7.3931953853e-17  (2.0855819128e-17,0.0000000000e+00)
-2  -3  2  0.0000000000e+00  -7.5589045400e+00
-2  -3  2  0.0000000000e+00  -1.1338356810e+01
-2  -3  2  0.0000000000e+00  7.5589045400e+00
-2  -3  3  1.7727202491e+01  7.5589045400e+00  1.1338356810e+01  -1.1338356810e+01  2.8209479177e-01  2.0066592645e-21  (5.6606812738e-22,0.0000000000e+00)
-2  -3  3  0.0000000000e+00  -7.5589045400e+00
-2  -3  3  0.0000000000e+00  -1.1338356810e+01
-2  -3  3  0.0000000000e+00  1.1338356810e+01
-2  -2  -3  1.5583080916e+01  7.5589045400e+00  7.5589045400e+00  1.1338356810e+01  2.8209479177e-01  7.3931953853e-17  (2.0855819128e-17,-0.0000000000e+00)
-2  -2  -3  0.0000000000e+00  -7.5589045400e+00
-2  -2  -3  0.0000000000e+00  -7.5589045400e+00
-2  -2  -3  0.0000000000e+00  -1.1338356810e+01
-2  -2  -2  1.3092406713e+01  7.5589045400e+00  7.5589045400e+00  7.5589045400e+00  2.8209479177e-01  2.7238973257e-12  (7.6839724890e-13,-0.0000000000e+00)
-2  -2  -2  0.0000000000e+00  -7.5589045400e+00
-2  -2  -2  0.0000000000e+00  -7.5589045400e+00
-2  -2  -2  0.0000000000e+00  -7.5589045400e+00
-2  -2  -1  1.1338356810e+01  7.5589045400e+00  7.5589045400e+00  3.7794522700e+00  2.8209479177e-01  1.4962558556e-09  (4.2208598403e-10,-0.0000000000e+00)
-2  -2  -1  0.0000000000e+00  -7.5589045400e+00
-2  -2  -1  0.0000000000e+00  -7.5589045400e+00
-2  -2  -1  0.0000000000e+00  -3.7794522700e+00
-2  -2  0  1.0689905317e+01  7.5589045400e+00  7.5589045400e+00  0.0000000000e+00  2.8209479177e-01  1.2253991453e-08  (3.4567871673e-09,0.0000000000e+00)
-2  -2  0  0.0000000000e+00  -7.5589045400e+00
-2  -2  0  0.0000000000e+00  -7.5589045400e+00
-2  -2  0  0.0000000000e+00  0.0000000000e+00
-2  -2  1  1.1338356810e+01  7.5589045400e+00  7.5589045400e+00  -3.7794522700e+00  2.8209479177e-01  1.4962558556e-09  (4.2208598403e-10,0.0000000000e+00)
-2  -2  1  0.0000000000e+00  -7.5589045400e+00
-2  -2  1  0.0000000000e+00  -7.5589045400e+00
-2  -2  1  0.0000000000e+00  3.7794522700e+00
-2  -2  2  1.3092406713e+01  7.5589045400e+00  7.5589045400e+00  -7.5589045400e+00  2.8209479177e-01  2.7238973257e-12  (7.6839724890e-13,0.0000000000e+00)
-2  -2  2  0.0000000000e+00  -7.5589045400e+00
-2  -2  2  0.0000000000e+00  -7.5589045400e+00
-2  -2  2  0.0000000000e+00  7.5589045400e+00
-2  -2  3  1.5583080916e+01  7.5589045400e+00  7.5589045400e+00  -1.1338356810e+01  2.8209479177e-01  7.3931953853e-17  (2.0855819128e-17,0.0000000000e+00)
-2  -2  3  0.0000000000e+00  -7.5589045400e+00
-2  -2  3  0.0000000000e+00  -7.5589045400e+00
-2  -2  3  0.0000000000e+00  1.1338356810e+01
-2  -1  -3  1.4141415504e+01  7.5589045400e+00  3.7794522700e+00  1.1338356810e+01  2.8209479177e-01  4.0611339429e-14  (1.1456247340e-14,-0.0000000000e+00)
-2  -1  -3  0.0000000000e+00  -7.5589045400e+00
-2  -1  -3  0.0000000000e+00  -3.7794522700e+00
-2  -1  -3  0.0000000000e+00  -1.1338356810e+01
-2  -1  -2  1.1338356810e+01  7.5589045400e+00  3.7794522700e+00  7.5589045400e+00  2.8209479177e-01  1.4962558556e-09  (4.2208598403e-10,-0.0000000000e+00)
-2  -1  -2  0.0000000000e+00  -7.5589045400e+00
-2  -1  -2  0.0000000000e+00  -3.7794522700e+00
-2  -1  -2  0.0000000000e+00  -7.5589045400e+00
-2  -1  -1  9.2577295687e+00  7.5589045400e+00  3.7794522700e+00  3.7794522700e+00  2.8209479177e-01  8.2190387778e-07  (2.3185480326e-07,-0.0000000000e+00)
-2  -1  -1  0.0000000000e+00  -7.5589045400e+00
-2  -1  -1  0.0000000000e+00  -3.7794522700e+00
-2  -1  -1  0.0000000000e+00  -3.7794522700e+00
-2  -1  0  8.4511121934e+00  7.5589045400e+00  3.7794522700e+00  0.0000000000e+00  2.8209479177e-01  6.7312126423e-06  (1.8988400287e-06,0.0000000000e+00)
-2  -1  0  0.0000000000e+00  -7.5589045400e+00
-2  -1  0  0.0000000000e+00  -3.7794522700e+00
-2  -1  0  0.0000000000e+00  0.0000000000e+00
-2  -1  1  9.2577295687e+00  7.5589045400e+00  3.7794522700e+00  -3.7794522700e+00  2.8209479177e-01  8.2190387778e-07  (2.3185480326e-07,0.0000000000e+00)
-2  -1  1  0.0000000000e+00  -7.5589045400e+00
-2  -1  1  0.0000000000e+00  -3.7794522700e+00
-2  -1  1  0.0000000000e+00  3.7794522700e+00
-2  -1  2  1.1338356810e+01  7.5589045400e+00  3.7794522700e+00  -7.5589045400e+00  2.8209479177e-01  1.4962558556e-09  (4.2208598403e-10,0.0000000000e+00)
-2  -1  2  0.0000000000e+00  -7.5589045400e+00
-2  -1  2  0.0000000000e+00  -3.7794522700e+00
-2  -1  2  0.0000000000e+00  7.5589045400e+00
-2  -1  3  1.4141415504e+01  7.5589045400e+00  3.7794522700e+00  -1.1338356810e+01  2.8209479177e-01  4.0611339429e-14  (1.1456247340e-14,0.0000000000e+00)
-2  -1  3  0.0000000000e+00  -7.5589045400e+00
-2  -1  3  0.0000000000e+00  -3.7794522700e+00
-2  -1  3  0.0000000000e+00  1.1338356810e+01
-2  0  -3  1.3627008953e+01  7.5589045400e+00  0.0000000000e+00  1.1338356810e+01  2.8209479177e-01  3.3259753285e-13  (9.3824031773e-14,0.0000000000e+00)
-2  0  -3  0.0000000000e+00  -7.5589045400e+00
-2  0  -3  0.0000000000e+00  0.0000000000e+00
-2  0  -3  0.0000000000e+00  -1.1338356810e+01
-2  0  -2  1.0689905317e+01  7.5589045400e+00  0.0000000000e+00  7.5589045400e+00  2.8209479177e-01  1.2253991453e-08  (3.4567871673e-09,0.0000000000e+00)
-2  0  -2  0.0000000000e+00  -7.5589045400e+00
-2  0  -2  0.0000000000e+00  0.0000000000e+00
-2  0  -2  0.0000000000e+00  -7.5589045400e+00
-2  0  -1  8.4511121934e+00  7.5589045400e+00  0.0000000000e+00  3.7794522700e+00  2.8209479177e-01  6.7312126423e-06  (1.8988400287e-06,0.0000000000e+00)
-2  0  -1  0.0000000000e+00  -7.5589045400e+00
-2  0  -1  0.0000000000e+00  0.0000000000e+00
-2  0  -1  0.0000000000e+00  -3.7794522700e+00
-2  0  0  7.5589045400e+00  7.5589045400e+00  0.0000000000e+00  0.0000000000e+00  2.8209479177e-01  5.5128283841e-05  (1.5551401751e-05,0.0000000000e+00)
-2  0  0  0.0000000000e+00  -7.5589045400e+00
-2  0  0  0.0000000000e+00  0.0000000000e+00
-2  0  0  0.0000000000e+00  0.0000000000e+00
-2  0  1  8.4511121934e+00  7.5589045400e+00  0.0000000000e+00  -3.7794522700e+00  2.8209479177e-01  6.7312126423e-06  (1.8988400287e-06,0.0000000000e+00)
-2  0  1  0.0000000000e+00  -7.5589045400e+00
-2  0  1  0.0000000000e+00  0.0000000000e+00
-2  0  1  0.0000000000e+00  3.7794522700e+00
-2  0  2  1.0689905317e+01  7.5589045400e+00  0.0000000000e+00  -7.5589045400e+00  2.8209479177e-01  1.2253991453e-08  (3.4567871673e-09,0.0000000000e+00)
-2  0  2  0.0000000000e+00  -7.5589045400e+00
-2  0  2  0.0000000000e+00  0.0000000000e+00
-2  0  2  0.0000000000e+00  7.5589045400e+00
-2  0  3  1.3627008953e+01  7.5589045400e+00  0.0000000000e+00  -1.1338356810e+01  2.8209479177e-01  3.3259753285e-13  (9.3824031773e-14,0.0000000000e+00)
-2  0  3  0.0000000000e+00  -7.5589045400e+00
-2  0  3  0.0000000000e+00  0.0000000000e+00
-2  0  3  0.0000000000e+00  1.1338356810e+01
-2  1  -3  1.4141415504e+01  7.5589045400e+00  -3.7794522700e+00  1.1338356810e+01  2.8209479177e-01  4.0611339429e-14  (1.1456247340e-14,0.0000000000e+00)
-2  1  -3  0.0000000000e+00  -7.5589045400e+00
-2  1  -3  0.0000000000e+00  3.7794522700e+00
-2  1  -3  0.0000000000e+00  -1.1338356810e+01
-2  1  -2  1.1338356810e+01  7.5589045400e+00  -3.7794522700e+00  7.5589045400e+00  2.8209479177e-01  1.4962558556e-09  (4.2208598403e-10,0.0000000000e+00)
-2  1  -2  0.0000000000e+00  -7.5589045400e+00
-2  1  -2  0.0000000000e+00  3.7794522700e+00
-2  1  -2  0.0000000000e+00  -7.5589045400e+00
-2  1  -1  9.2577295687e+00  7.5589045400e+00  -3.7794522700e+00  3.7794522700e+00  2.8209479177e-01  8.2190387778e-07  (2.3185480326e-07,0.0000000000e+00)
-2  1  -1  0.0000000000e+00  -7.5589045400e+00
-2  1  -1  0.0000000000e+00  3.7794522700e+00
-2  1  -1  0.0000000000e+00  -3.7794522700e+00
-2  1  0  8.4511121934e+00  7.5589045400e+00  -3.7794522700e+00  0.0000000000e+00  2.8209479177e-01  6.7312126423e-06  (1.8988400287e-06,0.0000000000e+00)
-2  1  0  0.0000000000e+00  -7.5589045400e+00
-2  1  0  0.0000000000e+00  3.7794522700e+00
-2  1  0  0.0000000000e+00  0.0000000000e+00
-2  1  1  9.2577295687e+00  7.5589045400e+00  -3.7794522700e+00  -3.7794522700e+00  2.8209479177e-01  8.2190387778e-07  (2.3185480326e-07,0.0000000000e+00)
-2  1  1  0.0000000000e+00  -7.5589045400e+00
-2  1  1  0.0000000000e+00  3.7794522700e+00
-2  1  1  0.0000000000e+00  3.7794522700e+00
-2  1  2  1.1338356810e+01  7.5589045400e+00  -3.7794522700e+00  -7.5589045400e+00  2.8209479177e-01  1.4962558556e-09  (4.2208598403e-10,0.0000000000e+00)
-2  1  2  0.0000000000e+00  -7.5589045400e+00
-2  1  2  0.0000000000e+00  3.7794522700e+00
-2  1  2  0.0000000000e+00  7.5589045400e+00
-2  1  3  1.4141415504e+01  7.5589045400e+00  -3.7794522700e+00  -1.1338356810e+01  2.8209479177e-01  4.0611339429e-14  (1.1456247340e-14,0.0000000000e+00)
-2  1  3  0.0000000000e+00  -7.5589045400e+00
-2  1  3  0.0000000000e+00  3.7794522700e+00
-2  1  3  0.0000000000e+00  1.1338356810e+01
-2  2  -3  1.5583080916e+01  7.5589045400e+00  -7.5589045400e+00  1.1338356810e+01  2.8209479177e-01  7.3931953853e-17  (2.0855819128e-17,0.0000000000e+00)
-2  2  -3  0.0000000000e+00  -7.5589045400e+00
-2  2  -3  0.0000000000e+00  7.5589045400e+00
-2  2  -3  0.0000000000e+00  -1.1338356810e+01
-2  2  -2  1.3092406713e+01  7.5589045400e+00  -7.5589045400e+00  7.5589045400e+00  2.8209479177e-01  2.7238973257e-12  (7.6839724890e-13,0.0000000000e+00)
-2  2  -2  0.0000000000e+00  -7.5589045400e+00
-2  2  -2  0.0000000000e+00  7.5589045400e+00
-2  2  -2  0.0000000000e+00  -7.5589045400e+00
-2  2  -1  1.1338356810e+01  7.5589045400e+00  -7.5589045400e+00  3.7794522700e+00  2.8209479177e-01  1.4962558556e-09  (4.2208598403e-10,0.0000000000e+00)
-2  2  -1  0.0000000000e+00  -7.5589045400e+00
-2  2  -1  0.0000000000e+00  7.5589045400e+00
-2  2  -1  0.0000000000e+00  -3.7794522700e+00
-2  2  0  1.0689905317e+01  7.5589045400e+00  -7.5589045400e+00  0.0000000000e+00  2.8209479177e-01  1.2253991453e-08  (3.4567871673e-09,0.0000000000e+00)
-2  2  0  0.0000000000e+00  -7.5589045400e+00
-2  2  0  0.0000000000e+00  7.5589045400e+00
-2  2  0  0.0000000000e+00  0.0000000000e+00
-2  2  1  1.1338356810e+01  7.5589045400e+00  -7.5589045400e+00  -3.7794522700e+00  2.8209479177e-01  1.4962558556e-09  (4.2208598403e-10,0.0000000000e+00)
-2  2  1  0.0000000000e+00  -7.5589045400e+00
-2  2  1  0.0000000000e+00  7.5589045400e+00
-2  2  1  0.0000000000e+00  3.7794522700e+00
-2  2  2  1.3092406713e+01  7.5589045400e+00  -7.5589045400e+00  -7.5589045400e+00  2.8209479177e-01  2.7238973257e-12  (7.6839724890e-13,0.0000000000e+00)
-2  2  2  0.0000000000e+00  -7.5589045400e+00
-2  2  2  0.0000000000e+00  7.5589045400e+00
-2  2  2  0.0000000000e+00  7.5589045400e+00
-2  2  3  1.5583080916e+01  7.5589045400e+00  -7.5589045400e+00  -1.1338356810e+01  2.8209479177e-01  7.3931953853e-17  (2.0855819128e-17,0.0000000000e+00)
-2  2  3  0.0000000000e+00  -7.5589045400e+00
-2  2  3  0.0000000000e+00  7.5589045400e+00
-2  2  3  0.0000000000e+00  1.1338356810e+01
-2  3  -3  1.7727202491e+01  7.5589045400e+00  -1.1338356810e+01  1.1338356810e+01  2.8209479177e-01  2.0066592645e-21  (5.6606812738e-22,0.0000000000e+00)
-2  3  -3  0.0000000000e+00  -7.5589045400e+00
-2  3  -3  0.0000000000e+00  1.1338356810e+01
-2  3  -3  0.0000000000e+00  -1.1338356810e+01
-2  3  -2  1.5583080916e+01  7.5589045400e+00  -1.1338356810e+01  7.5589045400e+00  2.8209479177e-01  7.3931953853e-17  (2.0855819128e-17,0.0000000000e+00)
-2  3  -2  0.0000000000e+00  -7.5589045400e+00
-2  3  -2  0.0000000000e+00  1.1338356810e+01
-2  3  -2  0.0000000000e+00  -7.5589045400e+00
-2  3  -1  1.4141415504e+01  7.5589045400e+00  -1.1338356810e+01  3.7794522700e+00  2.8209479177e-01  4.0611339429e-14  (1.1456247340e-14,0.0000000000e+00)
-2  3  -1  0.0000000000e+00  -7.5589045400e+00
-2  3  -1  0.0000000000e+00  1.1338356810e+01
-2  3  -1  0.0000000000e+00  -3.7794522700e+00
-2  3  0  1.3627008953e+01  7.5589045400e+00  -1.1338356810e+01  0.0000000000e+00  2.8209479177e-01  3.3259753285e-13  (9.3824031773e-14,0.0000000000e+00)
-2  3  0  0.0000000000e+00  -7.5589045400e+00
-2  3  0  0.0000000000e+00  1.1338356810e+01
-2  3  0  0.0000000000e+00  0.0000000000e+00
-2  3  1  1.4141415504e+01  7.5589045400e+00  -1.1338356810e+01  -3.7794522700e+00  2.8209479177e-01  4.0611339429e-14  (1.1456247340e-14,0.0000000000e+00)
-2  3  1  0.0000000000e+00  -7.5589045400e+00
-2  3  1  0.0000000000e+00  1.1338356810e+01
-2  3  1  0.0000000000e+00  3.7794522700e+00
-2  3  2  1.5583080916e+01  7.5589045400e+00  -1.1338356810e+01  -7.5589045400e+00  2.8209479177e-01  7.3931953853e-17  (2.0855819128e-17,0.0000000000e+00)
-2  3  2  0.0000000000e+00  -7.5589045400e+00
-2  3  2  0.0000000000e+00  1.1338356810e+01
-2  3  2  0.0000000000e+00  7.5589045400e+00
-2  3  3  1.7727202491e+01  7.5589045400e+00  -1.1338356810e+01  -1.1338356810e+01  2.8209479177e-01  2.0066592645e-21  (5.6606812738e-22,0.0000000000e+00)
-2  3  3  0.0000000000e+00  -7.5589045400e+00
-2  3  3  0.0000000000e+00  1.1338356810e+01
-2  3  3  0.0000000000e+00  1.1338356810e+01
-1  -3  -3  1.6474250507e+01  3.7794522700e+00  1.1338356810e+01  1.1338356810e+01  2.8209479177e-01  1.1022719706e-18  (3.1094518201e-19,-0.0000000000e+00)
-1  -3  -3  0.0000000000e+00  -3.7794522700e+00
-1  -3  -3  0.0000000000e+00  -1.1338356810e+01
-1  -3  -3  0.0000000000e+00  -1.1338356810e+01
-1  -3  -2  1.4141415504e+01  3.7794522700e+00  1.1338356810e+01  7.5589045400e+00  2.8209479177e-01  4.0611339429e-14  (1.1456247340e-14,-0.0000000000e+00)
-1  -3  -2  0.0000000000e+00  -3.7794522700e+00
-1  -3  -2  0.0000000000e+00  -1.1338356810e+01
-1  -3  -2  0.0000000000e+00  -7.5589045400e+00
-1  -3  -1  1.2535025093e+01  3.7794522700e+00  1.1338356810e+01  3.7794522700e+00  2.8209479177e-01  2.2308092838e-11  (6.2929968041e-12,-0.0000000000e+00)
-1  -3  -1  0.0000000000e+00  -3.7794522700e+00
-1  -3  -1  0.0000000000e+00  -1.1338356810e+01
-1  -3  -1  0.0000000000e+00  -3.7794522700e+00
-1  -3  0  1.1951677481e+01  3.7794522700e+00  1.1338356810e+01  0.0000000000e+00  2.8209479177e-01  1.8269815143e-10  (5.1538196986e-11,0.0000000000e+00)
-1  -3  0  0.0000000000e+00  -3.7794522700e+00
-1  -3  0  0.0000000000e+00  -1.1338356810e+01
-1  -3  0  0.0000000000e+00  0.0000000000e+00
-1  -3  1  1.2535025093e+01  3.7794522700e+00  1.1338356810e+01  -3.7794522700e+00  2.8209479177e-01  2.2308092838e-11  (6.2929968041e-12,0.0000000000e+00)
-1  -3  1  0.0000000000e+00  -3.7794522700e+00
-1  -3  1  0.0000000000e+00  -1.1338356810e+01
-1  -3  1  0.0000000000e+00  3.7794522700e+00
-1  -3  2  1.4141415504e+01  3.7794522700e+00  1.1338356810e+01  -7.5589045400e+00  2.8209479177e-01  4.0611339429e-14  (1.1456247340e-14,0.0000000000e+00)
-1  -3  2  0.0000000000e+00  -3.7794522700e+00
-1  -3  2  0.0000000000e+00  -1.1338356810e+01
-1  -3  2  0.0000000000e+00  7.5589045400e+00
-1  -3  3  1.6474250507e+01  3.7794522700e+00  1.1338356810e+01  -1.1338356810e+01  2.8209479177e-01  1.1022719706e-18  (3.1094518201e-19,0.0000000000e+00)
-1  -3  3  0.0000000000e+00  -3.7794522700e+00
-1  -3  3  0.0000000000e+00  -1.1338356810e+01
-1  -3  3  0.0000000000e+00  1.1338356810e+01
-1  -2  -3  1.4141415504e+01  3.7794522700e+00  7.5589045400e+00  1.1338356810e+01  2.8209479177e-01  4.0611339429e-14  (1.1456247340e-14,-0.0000000000e+00)
-1  -2  -3  0.0000000000e+00  -3.7794522700e+00
-1  -2  -3  0.0000000000e+00  -7.5589045400e+00
-1  -2  -3  0.0000000000e+00  -1.1338356810e+01
-1  -2  -2  1.1338356810e+01  3.7794522700e+00  7.5589045400e+00  7.5589045400e+00  2.8209479177e-01  1.4962558556e-09  (4.2208598403e-10,-0.0000000000e+00)
-1  -2  -2  0.0000000000e+00  -3.7794522700e+00
-1  -2  -2  0.0000000000e+00  -7.5589045400e+00
-1  -2  -2  0.0000000000e+00  -7.5589045400e+00
-1  -2  -1  9.2577295687e+00  3.7794522700e+00  7.5589045400e+00  3.7794522700e+00  2.8209479177e-01  8.2190387778e-07  (2.3185480326e-07,-0.0000000000e+00)
-1  -2  -1  0.0000000000e+00  -3.7794522700e+00
-1  -2  -1  0.0000000000e+00  -7.5589045400e+00
-1  -2  -1  0.0000000000e+00  -3.7794522700e+00
-1  -2  0  8.4511121934e+00  3.7794522700e+00  7.5589045400e+00  0.0000000000e+00  2.8209479177e-01  6.7312126423e-06  (1.8988400287e-06,0.0000000000e+00)
-1  -2  0  0.0000000000e+00  -3.7794522700e+00
-1  -2  0  0.0000000000e+00  -7.5589045400e+00
-1  -2  0  0.0000000000e+00  0.0000000000e+00
-1  -2  1  9.2577295687e+00  3.7794522700e+00  7.5589045400e+00  -3.7794522700e+00  2.8209479177e-01  8.2190387778e-07  (2.3185480326e-07,0.0000000000e+00)
-1  -2  1  0.0000000000e+00  -3.7794522700e+00
-1  -2  1  0.0000000000e+00  -7.5589045400e+00
-1  -2  1  0.0000000000e+00  3.7794522700e+00
-1  -2  2  1.1338356810e+01  3.7794522700e+00  7.5589045400e+00  -7.5589045400e+00  2.8209479177e-01  1.4962558556e-09  (4.2208598403e-10,0.0000000000e+00)
-1  -2  2  0.0000000000e+00  -3.7794522700e+00
-1  -2  2  0.0000000000e+00  -7.5589045400e+00
-1  -2  2  0.0000000000e+00  7.5589045400e+00
-1  -2  3  1.4141415504e+01  3.7794522700e+00  7.5589045400e+00  -1.1338356810e+01  2.8209479177e-01  4.0611339429e-14  (1.1456247340e-14,0.0000000000e+00)
-1  -2  3  0.0000000000e+00  -3.7794522700e+00
-1  -2  3  0.0000000000e+00  -7.5589045400e+00
-1  -2  3  0.0000000000e+00  1.1338356810e+01
-1  -1  -3  1.2535025093e+01  3.7794522700e+00  3.7794522700e+00  1.1338356810e+01  2.8209479177e-01  2.2308092838e-11  (6.2929968041e-12,-0.0000000000e+00)
-1  -1  -3  0.0000000000e+00  -3.7794522700e+00
-1  -1  -3  0.0000000000e+00  -3.7794522700e+00
-1  -1  -3  0.0000000000e+00  -1.1338356810e+01
-1  -1  -2  9.2577295687e+00  3.7794522700e+00  3.7794522700e+00  7.5589045400e+00  2.8209479177e-01  8.2190387778e-07  (2.3185480326e-07,-0.0000000000e+00)
-1  -1  -2  0.0000000000e+00  -3.7794522700e+00
-1  -1  -2  0.0000000000e+00  -3.7794522700e+00
-1  -1  -2  0.0000000000e+00  -7.5589045400e+00
-1  -1  -1  6.5462033564e+00  3.7794522700e+00  3.7794522700e+00  3.7794522700e+00  2.8209479177e-01  4.5165066210e-04  (1.2740829948e-04,-0.0000000000e+00)
-1  -1  -1  0.0000000000e+00  -3.7794522700e+00
-1  -1  -1  0.0000000000e+00  -3.7794522700e+00
-1  -1  -1  0.0000000000e+00  -3.7794522700e+00
-1  -1  0  5.3449526586e+00  3.7794522700e+00  3.7794522700e+00  0.0000000000e+00  2.8209479177e-01  3.7209743993e-03  (1.0496674984e-03,0.0000000000e+00)
-1  -1  0  0.0000000000e+00  -3.7794522700e+00
-1  -1  0  0.0000000000e+00  -3.7794522700e+00
-1  -1  0  0.0000000000e+00  0.0000000000e+00
-1  -1  1  6.5462033564e+00  3.7794522700e+00  3.7794522700e+00  -3.7794522700e+00  2.8209479177e-01  4.5165066210e-04  (1.2740829948e-04,0.0000000000e+00)
-1  -1  1  0.0000000000e+00  -3.7794522700e+00
-1  -1  1  0.0000000000e+00  -3.7794522700e+00
-1  -1  1  0.0000000000e+00  3.7794522700e+00
-1  -1  2  9.2577295687e+00  3.7794522700e+00  3.7794522700e+00  -7.5589045400e+00  2.8209479177e-01  8.2190387778e-07  (2.3185480326e-07,0.0000000000e+00)
-1  -1  2  0.0000000000e+00  -3.7794522700e+00
-1  -1  2  0.0000000000e+00  -3.7794522700e+00
-1  -1  2  0.0000000000e+00  7.5589045400e+00
-1  -1  3  1.2535025093e+01  3.7794522700e+00  3.7794522700e+00  -1.1338356810e+01  2.8209479177e-01  2.2308092838e-11  (6.2929968041e-12,0.0000000000e+00)
-1  -1  3  0.0000000000e+00  -3.7794522700e+00
-1  -1  3  0.0000000000e+00  -3.7794522700e+00
-1  -1  3  0.0000000000e+00  1.1338356810e+01
-1  0  -3  1.1951677481e+01  3.7794522700e+00  0.0000000000e+00  1.1338356810e+01  2.8209479177e-01  1.8269815143e-10  (5.1538196986e-11,0.0000000000e+00)
-1  0  -3  0.0000000000e+00  -3.7794522700e+00
-1  0  -3  0.0000000000e+00  0.0000000000e+00
-1  0  -3  0.0000000000e+00  -1.1338356810e+01
-1  0  -2  8.4511121934e+00  3.7794522700e+00  0.0000000000e+00  7.5589045400e+00  2.8209479177e-01  6.7312126423e-06  (1.8988400287e-06,0.0000000000e+00)
-1  0  -2  0.0000000000e+00  -3.7794522700e+00
-1  0  -2  0.0000000000e+00  0.0000000000e+00
-1  0  -2  0.0000000000e+00  -7.5589045400e+00
-1  0  -1  5.3449526586e+00  3.7794522700e+00  0.0000000000e+00  3.7794522700e+00  2.8209479177e-01  3.7209743993e-03  (1.0496674984e-03,0.0000000000e+00)
-1  0  -1  0.0000000000e+00  -3.7794522700e+00
-1  0  -1  0.0000000000e+00  0.0000000000e+00
-1  0  -1  0.0000000000e+00  -3.7794522700e+00
-1  0  0  3.7794522700e+00  3.7794522700e+00  0.0000000000e+00  0.0000000000e+00  2.8209479177e-01  3.3469399013e-02  (9.4415431454e-03,0.0000000000e+00)
-1  0  0  0.0000000000e+00  -3.7794522700e+00
-1  0  0  0.0000000000e+00  0.0000000000e+00
-1  0  0  0.0000000000e+00  0.0000000000e+00
-1  0  1  5.3449526586e+00  3.7794522700e+00  0.0000000000e+00  -3.7794522700e+00  2.8209479177e-01  3.7209743993e-03  (1.0496674984e-03,0.0000000000e+00)
-1  0  1  0.0000000000e+00  -3.7794522700e+00
-1  0  1  0.0000000000e+00  0.0000000000e+00
-1  0  1  0.0000000000e+00  3.7794522700e+00
-1  0  2  8.4511121934e+00  3.7794522700e+00  0.0000000000e+00  -7.5589045400e+00  2.8209479177e-01  6.7312126423e-06  (1.8988400287e-06,0.0000000000e+00)
-1  0  2  0.0000000000e+00  -3.7794522700e+00
-1  0  2  0.0000000000e+00  0.0000000000e+00
-1  0  2  0.0000000000e+00  7.5589045400e+00
-1  0  3  1.1951677481e+01  3.7794522700e+00  0.0000000000e+00  -1.1338356810e+01  2.8209479177e-01  1.8269815143e-10  (5.1538196986e-11,0.0000000000e+00)
-1  0  3  0.0000000000e+00  -3.7794522700e+00
-1  0  3  0.0000000000e+00  0.0000000000e+00
-1  0  3  0.0000000000e+00  1.1338356810e+01
-1  1  -3  1.2535025093e+01  3.7794522700e+00  -3.7794522700e+00  1.1338356810e+01  2.8209479177e-01  2.2308092838e-11  (6.2929968041e-12,0.0000000000e+00)
-1  1  -3  0.0000000000e+00  -3.7794522700e+00
-1  1  -3  0.0000000000e+00  3.7794522700e+00
-1  1  -3  0.0000000000e+00  -1.1338356810e+01
-1  1  -2  9.2577295687e+00  3.7794522700e+00  -3.7794522700e+00  7.5589045400e+00  2.8209479177e-01  8.2190387778e-07  (2.3185480326e-07,0.0000000000e+00)
-1  1  -2  0.0000000000e+00  -3.7794522700e+00
-1  1  -2  0.0000000000e+00  3.7794522700e+00
-1  1  -2  0.0000000000e+00  -7.5589045400e+00
-1  1  -1  6.5462033564e+00  3.7794522700e+00  -3.7794522700e+00  3.7794522700e+00  2.8209479177e-01  4.5165066210e-04  (1.2740829948e-04,0.0000000000e+00)
-1  1  -1  0.0000000000e+00  -3.7794522700e+00
-1  1  -1  0.0000000000e+00  3.7794522700e+00
-1  1  -1  0.0000000000e+00  -3.7794522700e+00
-1  1  0  5.3449526586e+00  3.7794522700e+00  -3.7794522700e+00  0.0000000000e+00  2.8209479177e-01  3.7209743993e-03  (1.0496674984e-03,0.0000000000e+00)
-1  1  0  0.0000000000e+00  -3.7794522700e+00
-1  1  0  0.0000000000e+00  3.7794522700e+00
-1  1  0  0.0000000000e+00  0.0000000000e+00
-1  1  1  6.5462033564e+00  3.7794522700e+00  -3.7794522700e+00  -3.7794522700e+00  2.8209479177e-01  4.5165066210e-04  (1.2740829948e-04,0.0000000000e+00)
-1  1  1  0.0000000000e+00  -3.7794522700e+00
-1  1  1  0.0000000000e+00  3.7794522700e+00
-1  1  1  0.0000000000e+00  3.7794522700e+00
-1  1  2  9.2577295687e+00  3.7794522700e+00  -3.7794522700e+00  -7.5589045400e+00  2.8209479177e-01  8.2190387778e-07  (2.3185480326e-07,0.0000000000e+00)
-1  1  2  0.0000000000e+00  -3.7794522700e+00
-1  1  2  0.0000000000e+00  3.7794522700e+00
-1  1  2  0.0000000000e+00  7.5589045400e+00
-1  1  3  1.2535025093e+01  3.7794522700e+00  -3.7794522700e+00  -1.1338356810e+01  2.8209479177e-01  2.2308092838e-11  (6.2929968041e-12,0.0000000000e+00)
-1  1  3  0.0000000000e+00  -3.7794522700e+00
-1  1  3  0.0000000000e+00  3.7794522700e+00
-1  1  3  0.0000000000e+00  1.1338356810e+01
-1  2  -3  1.4141415504e+01  3.7794522700e+00  -7.5589045400e+00  1.1338356810e+01  2.8209479177e-01  4.0611339429e-14  (1.1456247340e-14,0.0000000000e+00)
-1  2  -3  0.0000000000e+00  -3.7794522700e+00
-1  2  -3  0.0000000000e+00  7.5589045400e+00
-1  2  -3  0.0000000000e+00  -1.1338356810e+01
-1  2  -2  1.1338356810e+01  3.7794522700e+00  -7.5589045400e+00  7.5589045400e+00  2.8209479177e-01  1.4962558556e-09  (4.2208598403e-10,0.0000000000e+00)
-1  2  -2  0.0000000000e+00  -3.7794522700e+00
-1  2  -2  0.0000000000e+00  7.5589045400e+00
-1  2  -2  0.0000000000e+00  -7.5589045400e+00
-1  2  -1  9.2577295687e+00  3.7794522700e+00  -7.5589045400e+00  3.7794522700e+00  2.8209479177e-01  8.2190387778e-07  (2.3185480326e-07,0.0000000000e+00)
-1  2  -1  0.0000000000e+00  -3.7794522700e+00
-1  2  -1  0.0000000000e+00  7.5589045400e+00
-1  2  -1  0.0000000000e+00  -3.7794522700e+00
-1  2  0  8.4511121934e+00  3.7794522700e+00  -7.5589045400e+00  0.0000000000e+00  2.8209479177e-01  6.7312126423e-06  (1.8988400287e-06,0.0000000000e+00)
-1  2  0  0.0000000000e+00  -3.7794522700e+00
-1  2  0  0.0000000000e+00  7.5589045400e+00
-1  2  0  0.0000000000e+00  0.0000000000e+00
-1  2  1  9.2577295687e+00  3.7794522700e+00  -7.5589045400e+00  -3.7794522700e+00  2.8209479177e-01  8.2190387778e-07  (2.3185480326e-07,0.0000000000e+00)
-1  2  1  0.0000000000e+00  -3.7794522700e+00
-1  2  1  0.0000000000e+00  7.5589045400e+00
-1  2  1  0.0000000000e+00  3.7794522700e+00
-1  2  2  1.1338356810e+01  3.7794522700e+00  -7.5589045400e+00  -7.5589045400e+00  2.8209479177e-01  1.4962558556e-09  (4.2208598403e-10,0.0000000000e+00)
-1  2  2  0.0000000000e+00  -3.7794522700e+00
-1  2  2  0.0000000000e+00  7.5589045400e+00
-1  2  2  0.0000000000e+00  7.5589045400e+00
-1  2  3  1.4141415504e+01  3.7794522700e+00  -7.5589045400e+00  -1.1338356810e+01  2.8209479177e-01  4.0611339429e-14  (1.1456247340e-14,0.0000000000e+00)
-1  2  3  0.0000000000e+00  -3.7794522700e+00
-1  2  3  0.0000000000e+00  7.5589045400e+00
-1  2  3  0.0000000000e+00  1.1338356810e+01
-1  3  -3  1.6474250507e+01  3.7794522700e+00  -1.1338356810e+01  1.1338356810e+01  2.8209479177e-01  1.1022719706e-18  (3.1094518201e-19,0.0000000000e+00)
-1  3  -3  0.0000000000e+00  -3.7794522700e+00
-1  3  -3  0.0000000000e+00  1.1338356810e+01
-1  3  -3  0.0000000000e+00  -1.1338356810e+01
-1  3  -2  1.4141415504e+01  3.7794522700e+00  -1.1338356810e+01  7.5589045400e+00  2.8209479177e-01  4.0611339429e-14  (1.1456247340e-14,0.0000000000e+00)
-1  3  -2  0.0000000000e+00  -3.7794522700e+00
-1  3  -2  0.0000000000e+00  1.1338356810e+01
-1  3  -2  0.0000000000e+00  -7.5589045400e+00
-1  3  -1  1.2535025093e+01  3.7794522700e+00  -1.1338356810e+01  3.7794522700e+00  2.8209479177e-01  2.2308092838e-11  (6.2929968041e-12,0.0000000000e+00)
-1  3  -1  0.0000000000e+00  -3.7794522700e+00
-1  3  -1  0.0000000000e+00  1.1338356810e+01
-1  3  -1  0.0000000000e+00  -3.7794522700e+00
-1  3  0  1.1951677481e+01  3.7794522700e+00  -1.1338356810e+01  0.0000000000e+00  2.8209479177e-01  1.8269815143e-10  (5.1538196986e-11,0.0000000000e+00)
-1  3  0  0.0000000000e+00  -3.7794522700e+00
-1  3  0  0.0000000000e+00  1.1338356810e+01
-1  3  0  0.0000000000e+00  0.0000000000e+00
-1  3  1  1.2535025093e+01  3.7794522700e+00  -1.1338356810e+01  -3.7794522700e+00  2.8209479177e-01  2.2308092838e-11  (6.2929968041e-12,0.0000000000e+00)
-1  3  1  0.0000000000e+00  -3.7794522700e+00
-1  3  1  0.0000000000e+00  1.1338356810e+01
-1  3  1  0.0000000000e+00  3.7794522700e+00
-1  3  2  1.4141415504e+01  3.7794522700e+00  -1.1338356810e+01  -7.5589045400e+00  2.8209479177e-01  4.0611339429e-14  (1.1456247340e-14,0.0000000000e+00)
-1  3  2  0.0000000000e+00  -3.7794522700e+00
-1  3  2  0.0000000000e+00  1.1338356810e+01
-1  3  2  0.0000000000e+00  7.5589045400e+00
-1  3  3  1.6474250507e+01  3.7794522700e+00  -1.1338356810e+01  -1.1338356810e+01  2.8209479177e-01  1.1022719706e-18  (3.1094518201e-19,0.0000000000e+00)
-1  3  3  0.0000000000e+00  -3.7794522700e+00
-1  3  3  0.0000000000e+00  1.1338356810e+01
-1  3  3  0.0000000000e+00  1.1338356810e+01
0  -3  -3  1.6034857976e+01  0.0000000000e+00  1.1338356810e+01  1.1338356810e+01  2.8209479177e-01  9.0273540109e-18  (2.5465695500e-18,0.0000000000e+00)
0  -3  -3  0.0000000000e+00  0.0000000000e+00
0  -3  -3  0.0000000000e+00  -1.1338356810e+01
0  -3  -3  0.0000000000e+00  -1.1338356810e+01
0  -3  -2  1.3627008953e+01  0.0000000000e+00  1.1338356810e+01  7.5589045400e+00  2.8209479177e-01  3.3259753285e-13  (9.3824031773e-14,0.0000000000e+00)
0  -3  -2  0.0000000000e+00  0.0000000000e+00
0  -3  -2  0.0000000000e+00  -1.1338356810e+01
0  -3  -2  0.0000000000e+00  -7.5589045400e+00
0  -3  -1  1.1951677481e+01  0.0000000000e+00  1.1338356810e+01  3.7794522700e+00  2.8209479177e-01  1.8269815143e-10  (5.1538196986e-11,0.0000000000e+00)
0  -3  -1  0.0000000000e+00  0.0000000000e+00
0  -3  -1  0.0000000000e+00  -1.1338356810e+01
0  -3  -1  0.0000000000e+00  -3.7794522700e+00
0  -3  0  1.1338356810e+01  0.0000000000e+00  1.1338356810e+01  0.0000000000e+00  2.8209479177e-01  1.4962558556e-09  (4.2208598403e-10,0.0000000000e+00)
0  -3  0  0.0000000000e+00  0.0000000000e+00
0  -3  0  0.0000000000e+00  -1.1338356810e+01
0  -3  0  0.0000000000e+00  0.0000000000e+00
0  -3  1  1.1951677481e+01  0.0000000000e+00  1.1338356810e+01  -3.7794522700e+00  2.8209479177e-01  1.8269815143e-10  (5.1538196986e-11,0.0000000000e+00)
0  -3  1  0.0000000000e+00  0.0000000000e+00
0  -3  1  0.0000000000e+00  -1.1338356810e+01
0  -3  1  0.0000000000e+00  3.7794522700e+00
0  -3  2  1.3627008953e+01  0.0000000000e+00  1.1338356810e+01  -7.5589045400e+00  2.8209479177e-01  3.3259753285e-13  (9.3824031773e-14,0.0000000000e+00)
0  -3  2  0.0000000000e+00  0.0000000000e+00
0  -3  2  0.0000000000e+00  -1.1338356810e+01
0  -3  2  0.0000000000e+00  7.5589045400e+00
0  -3  3  1.6034857976e+01  0.0000000000e+00  1.1338356810e+01  -1.1338356810e+01  2.8209479177e-01  9.0273540109e-18  (2.5465695500e-18,0.0000000000e+00)
0  -3  3  0.0000000000e+00  0.0000000000e+00
0  -3  3  0.0000000000e+00  -1.1338356810e+01
0  -3  3  0.0000000000e+00  1.1338356810e+01
0  -2  -3  1.3627008953e+01  0.0000000000e+00  7.5589045400e+00  1.1338356810e+01  2.8209479177e-01  3.3259753285e-13  (9.3824031773e-14,0.0000000000e+00)
0  -2  -3  0.0000000000e+00  0.0000000000e+00
0  -2  -3  0.0000000000e+00  -7.5589045400e+00
0  -2  -3  0.0000000000e+00  -1.1338356810e+01
0  -2  -2  1.0689905317e+01  0.0000000000e+00  7.5589045400e+00  7.5589045400e+00  2.8209479177e-01  1.2253991453e-08  (3.4567871673e-09,0.0000000000e+00)
0  -2  -2  0.0000000000e+00  0.0000000000e+00
0  -2  -2  0.0000000000e+00  -7.5589045400e+00
0  -2  -2  0.0000000000e+00  -7.5589045400e+00
0  -2  -1  8.4511121934e+00  0.0000000000e+00  7.5589045400e+00  3.7794522700e+00  2.8209479177e-01  6.7312126423e-06  (1.8988400287e-06,0.0000000000e+00)
0  -2  -1  0.0000000000e+00  0.0000000000e+00
0  -2  -1  0.0000000000e+00  -7.5589045400e+00
0  -2  -1  0.0000000000e+00  -3.7794522700e+00
0  -2  0  7.5589045400e+00  0.0000000000e+00  7.5589045400e+00  0.0000000000e+00  2.8209479177e-01  5.5128283841e-05  (1.5551401751e-05,0.0000000000e+00)
0  -2  0  0.0000000000e+00  0.0000000000e+00
0  -2  0  0.0000000000e+00  -7.5589045400e+00
0  -2  0  0.0000000000e+00  0.0000000000e+00
0  -2  1  8.4511121934e+00  0.0000000000e+00  7.5589045400e+00  -3.7794522700e+00  2.8209479177e-01  6.7312126423e-06  (1.8988400287e-06,0.0000000000e+00)
0  -2  1  0.0000000000e+00  0.0000000000e+00
0  -2  1  0.0000000000e+00  -7.5589045400e+00
0  -2  1  0.0000000000e+00  3.7794522700e+00
0  -2  2  1.0689905317e+01  0.0000000000e+00  7.5589045400e+00  -7.5589045400e+00  2.8209479177e-01  1.2253991453e-08  (3.4567871673e-09,0.0000000000e+00)
0  -2  2  0.0000000000e+00  0.0000000000e+00
0  -2  2  0.0000000000e+00  -7.5589045400e+00
0  -2  2  0.0000000000e+00  7.5589045400e+00
0  -2  3  1.3627008953e+01  0.0000000000e+00  7.5589045400e+00  -1.1338356810e+01  2.8209479177e-01  3.3259753285e-13  (9.3824031773e-14,0.0000000000e+00)
0  -2  3  0.0000000000e+00  0.0000000000e+00
0  -2  3  0.0000000000e+00  -7.5589045400e+00
0  -2  3  0.0000000000e+00  1.1338356810e+01
0  -1  -3  1.1951677481e+01  0.0000000000e+00  3.7794522700e+00  1.1338356810e+01  2.8209479177e-01  1.8269815143e-10  (5.1538196986e-11,0.0000000000e+00)
0  -1  -3  0.0000000000e+00  0.0000000000e+00
0  -1  -3  0.0000000000e+00  -3.7794522700e+00
0  -1  -3  0.0000000000e+00  -1.1338356810e+01
0  -1  -2  8.4511121934e+00  0.0000000000e+00  3.7794522700e+00  7.5589045400e+00  2.8209479177e-01  6.7312126423e-06  (1.8988400287e-06,0.0000000000e+00)
0  -1  -2  0.0000000000e+00  0.0000000000e+00
0  -1  -2  0.0000000000e+00  -3.7794522700e+00
0  -1  -2  0.0000000000e+00  -7.5589045400e+00
0  -1  -1  5.3449526586e+00  0.0000000000e+00  3.7794522700e+00  3.7794522700e+00  2.8209479177e-01  3.7209743993e-03  (1.0496674984e-03,0.0000000000e+00)
0  -1  -1  0.0000000000e+00  0.0000000000e+00
0  -1  -1  0.0000000000e+00  -3.7794522700e+00
0  -1  -1  0.0000000000e+00  -3.7794522700e+00
0  -1  0  3.7794522700e+00  0.0000000000e+00  3.7794522700e+00  0.0000000000e+00  2.8209479177e-01  3.3469399013e-02  (9.4415431454e-03,0.0000000000e+00)
0  -1  0  0.0000000000e+00  0.0000000000e+00
0  -1  0  0.0000000000e+00  -3.7794522700e+00
0  -1  0  0.0000000000e+00  0.0000000000e+00
0  -1  1  5.3449526586e+00  0.0000000000e+00  3.7794522700e+00  -3.7794522700e+00  2.8209479177e-01  3.7209743993e-03  (1.0496674984e-03,0.0000000000e+00)
0  -1  1  0.0000000000e+00  0.0000000000e+00
0  -1  1  0.0000000000e+00  -3.7794522700e+00
0  -1  1  0.0000000000e+00  3.7794522700e+00
0  -1  2  8.4511121934e+00  0.0000000000e+00  3.7794522700e+00  -7.5589045400e+00  2.8209479177e-01  6.7312126423e-06  (1.8988400287e-06,0.0000000000e+00)
0  -1  2  0.0000000000e+00  0.0000000000e+00
0  -1  2  0.0000000000e+00  -3.7794522700e+00
0  -1  2  0.0000000000e+00  7.5589045400e+00
0  -1  3  1.1951677481e+01  0.0000000000e+00  3.7794522700e+00  -1.1338356810e+01  2.8209479177e-01  1.8269815143e-10  (5.1538196986e-11,0.0000000000e+00)
0  -1  3  0.0000000000e+00  0.0000000000e+00
0  -1  3  0.0000000000e+00  -3.7794522700e+00
0  -1  3  0.0000000000e+00  1.1338356810e+01
0  0  -3  1.1338356810e+01  0.0000000000e+00  0.0000000000e+00  1.1338356810e+01  2.8209479177e-01  1.4962558556e-09  (4.2208598403e-10,0.0000000000e+00)
0  0  -3  0.0000000000e+00  0.0000000000e+00
0  0  -3  0.0000000000e+00  0.0000000000e+00
0  0  -3  0.0000000000e+00  -1.1338356810e+01
0  0  -2  7.5589045400e+00  0.0000000000e+00  0.0000000000e+00  7.5589045400e+00  2.8209479177e-01  5.5128283841e-05  (1.5551401751e-05,0.0000000000e+00)
0  0  -2  0.0000000000e+00  0.0000000000e+00
0  0  -2  0.0000000000e+00  0.0000000000e+00
0  0  -2  0.0000000000e+00  -7.5589045400e+00
0  0  -1  3.7794522700e+00  0.0000000000e+00  0.0000000000e+00  3.7794522700e+00  2.8209479177e-01  3.3469399013e-02  (9.4415431454e-03,0.0000000000e+00)
0  0  -1  0.0000000000e+00  0.0000000000e+00
0  0  -1  0.0000000000e+00  0.0000000000e+00
0  0  -1  0.0000000000e+00  -3.7794522700e+00
0  0  0  0.0000000000e+00  0.0000000000e+00  0.0000000000e+00  0.0000000000e+00  2.8209479177e-01  1.9619920516e+00  (5.5346773926e-01,0.0000000000e+00)
0  0  0  0.0000000000e+00  0.0000000000e+00
0  0  0  0.0000000000e+00  0.0000000000e+00
0  0  0  0.0000000000e+00  0.0000000000e+00
0  0  1  3.7794522700e+00  0.0000000000e+00  0.0000000000e+00  -3.7794522700e+00  2.8209479177e-01  3.3469399013e-02  (9.4415431454e-03,0.0000000000e+00)
0  0  1  0.0000000000e+00  0.0000000000e+00
0  0  1  0.0000000000e+00  0.0000000000e+00
0  0  1  0.0000000000e+00  3.7794522700e+00
0  0  2  7.5589045400e+00  0.0000000000e+00  0.0000000000e+00  -7.5589045400e+00  2.8209479177e-01  5.5128283841e-05  (1.5551401751e-05,0.0000000000e+00)
0  0  2  0.0000000000e+00  0.0000000000e+00
0  0  2  0.0000000000e+00  0.0000000000e+00
0  0  2  0.0000000000e+00  7.5589045400e+00
0  0  3  1.1338356810e+01  0.0000000000e+00  0.0000000000e+00  -1.1338356810e+01  2.8209479177e-01  1.4962558556e-09  (4.2208598403e-10,0.0000000000e+00)
0  0  3  0.0000000000e+00  0.0000000000e+00
0  0  3  0.0000000000e+00  0.0000000000e+00
0  0  3  0.0000000000e+00  1.1338356810e+01
0  1  -3  1.1951677481e+01  0.0000000000e+00  -3.7794522700e+00  1.1338356810e+01  2.8209479177e-01  1.8269815143e-10  (5.1538196986e-11,0.0000000000e+00)
0  1  -3  0.0000000000e+00  0.0000000000e+00
0  1  -3  0.0000000000e+00  3.7794522700e+00
0  1  -3  0.0000000000e+00  -1.1338356810e+01
0  1  -2  8.4511121934e+00  0.0000000000e+00  -3.7794522700e+00  7.5589045400e+00  2.8209479177e-01  6.7312126423e-06  (1.8988400287e-06,0.0000000000e+00)
0  1  -2  0.0000000000e+00  0.0000000000e+00
0  1  -2  0.0000000000e+00  3.7794522700e+00
0  1  -2  0.0000000000e+00  -7.5589045400e+00
0  1  -1  5.3449526586e+00  0.0000000000e+00  -3.7794522700e+00  3.7794522700e+00  2.8209479177e-01  3.7209743993e-03  (1.0496674984e-03,0.0000000000e+00)
0  1  -1  0.0000000000e+00  0.0000000000e+00
0  1  -1  0.0000000000e+00  3.7794522700e+00
0  1  -1  0.0000000000e+00  -3.7794522700e+00
0  1  0  3.7794522700e+00  0.0000000000e+00  -3.7794522700e+00  0.0000000000e+00  2.8209479177e-01  3.3469399013e-02  (9.4415431454e-03,0.0000000000e+00)
0  1  0  0.0000000000e+00  0.0000000000e+00
0  1  0  0.0000000000e+00  3.7794522700e+00
0  1  0  0.0000000000e+00  0.0000000000e+00
0  1  1  5.3449526586e+00  0.0000000000e+00  -3.7794522700e+00  -3.7794522700e+00  2.8209479177e-01  3.7209743993e-03  (1.0496674984e-03,0.0000000000e+00)
0  1  1  0.0000000000e+00  0.0000000000e+00
0  1  1  0.0000000000e+00  3.7794522700e+00
0  1  1  0.0000000000e+00  3.7794522700e+00
0  1  2  8.4511121934e+00  0.0000000000e+00  -3.7794522700e+00  -7.5589045400e+00  2.8209479177e-01  6.7312126423e-06  (1.8988400287e-06,0.0000000000e+00)
0  1  2  0.0000000000e+00  0.0000000000e+00
0  1  2  0.0000000000e+00  3.7794522700e+00
0  1  2  0.0000000000e+00  7.5589045400e+00
0  1  3  1.1951677481e+01  0.0000000000e+00  -3.7794522700e+00  -1.1338356810e+01  2.8209479177e-01  1.8269815143e-10  (5.1538196986e-11,0.0000000000e+00)
0  1  3  0.0000000000e+00  0.0000000000e+00
0  1  3  0.0000000000e+00  3.7794522700e+00
0  1  3  0.0000000000e+00  1.1338356810e+01
0  2  -3  1.3627008953e+01  0.0000000000e+00  -7.5589045400e+00  1.1338356810e+01  2.8209479177e-01  3.3259753285e-13  (9.3824031773e-14,0.0000000000e+00)
0  2  -3  0.0000000000e+00  0.0000000000e+00
0  2  -3  0.0000000000e+00  7.5589045400e+00
0  2  -3  0.0000000000e+00  -1.1338356810e+01
0  2  -2  1.0689905317e+01  0.0000000000e+00  -7.5589045400e+00  7.5589045400e+00  2.8209479177e-01  1.2253991453e-08  (3.4567871673e-09,0.0000000000e+00)
0  2  -2  0.0000000000e+00  0.0000000000e+00
0  2  -2  0.0000000000e+00  7.5589045400e+00
0  2  -2  0.0000000000e+00  -7.5589045400e+00
0  2  -1  8.4511121934e+00  0.0000000000e+00  -7.5589045400e+00  3.7794522700e+00  2.8209479177e-01  6.7312126423e-06  (1.8988400287e-06,0.0000000000e+00)
0  2  -1  0.0000000000e+00  0.0000000000e+00
0  2  -1  0.0000000000e+00  7.5589045400e+00
0  2  -1  0.0000000000e+00  -3.7794522700e+00
0  2  0  7.5589045400e+00  0.0000000000e+00  -7.5589045400e+00  0.0000000000e+00  2.8209479177e-01  5.5128283841e-05  (1.5551401751e-05,0.0000000000e+00)
0  2  0  0.0000000000e+00  0.0000000000e+00
0  2  0  0.0000000000e+00  7.5589045400e+00
0  2  0  0.0000000000e+00  0.0000000000e+00
0  2  1  8.4511121934e+00  0.0000000000e+00  -7.5589045400e+00  -3.7794522700e+00  2.8209479177e-01  6.7312126423e-06  (1.8988400287e-06,0.0000000000e+00)
0  2  1  0.0000000000e+00  0.0000000000e+00
0  2  1  0.0000000000e+00  7.5589045400e+00
0  2  1  0.0000000000e+00  3.7794522700e+00
0  2  2  1.0689905317e+01  0.0000000000e+00  -7.5589045400e+00  -7.5589045400e+00  2.8209479177e-01  1.2253991453e-08  (3.4567871673e-09,0.0000000000e+00)
0  2  2  0.0000000000e+00  0.0000000000e+00
0  2  2  0.0000000000e+00  7.5589045400e+00
0  2  2  0.0000000000e+00  7.5589045400e+00
0  2  3  1.3627008953e+01  0.0000000000e+00  -7.5589045400e+00  -1.1338356810e+01  2.8209479177e-01  3.3259753285e-13  (9.3824031773e-14,0.0000000000e+00)
0  2  3  0.0000000000e+00  0.0000000000e+00
0  2  3  0.0000000000e+00  7.5589045400e+00
0  2  3  0.0000000000e+00  1.1338356810e+01
0  3  -3  1.6034857976e+01  0.0000000000e+00  -1.1338356810e+01  1.1338356810e+01  2.8209479177e-01  9.0273540109e-18  (2.5465695500e-18,0.0000000000e+00)
0  3  -3  0.0000000000e+00  0.0000000000e+00
0  3  -3  0.0000000000e+00  1.1338356810e+01
0  3  -3  0.0000000000e+00  -1.1338356810e+01
0  3  -2  1.3627008953e+01  0.0000000000e+00  -1.1338356810e+01  7.5589045400e+00  2.8209479177e-01  3.3259753285e-13  (9.3824031773e-14,0.0000000000e+00)
0  3  -2  0.0000000000e+00  0.0000000000e+00
0  3  -2  0.0000000000e+00  1.1338356810e+01
0  3  -2  0.0000000000e+00  -7.5589045400e+00
0  3  -1  1.1951677481e+01  0.0000000000e+00  -1.1338356810e+01  3.7794522700e+00  2.8209479177e-01  1.8269815143e-10  (5.1538196986e-11,0.0000000000e+00)
0  3  -1  0.0000000000e+00  0.0000000000e+00
0  3  -1  0.0000000000e+00  1.1338356810e+01
0  3  -1  0.0000000000e+00  -3.7794522700e+00
0  3  0  1.1338356810e+01  0.0000000000e+00  -1.1338356810e+01  0.0000000000e+00  2.8209479177e-01  1.4962558556e-09  (4.2208598403e-10,0.0000000000e+00)
0  3  0  0.0000000000e+00  0.0000000000e+00
0  3  0  0.0000000000e+00  1.1338356810e+01
0  3  0  0.0000000000e+00  0.0000000000e+00
0  3  1  1.1951677481e+01  0.0000000000e+00  -1.1338356810e+01  -3.7794522700e+00  2.8209479177e-01  1.8269815143e-10  (5.1538196986e-11,0.0000000000e+00)
0  3  1  0.0000000000e+00  0.0000000000e+00
0  3  1  0.0000000000e+00  1.1338356810e+01
0  3  1  0.0000000000e+00  3.7794522700e+00
0  3  2  1.3627008953e+01  0.0000000000e+00  -1.1338356810e+01  -7.5589045400e+00  2.8209479177e-01  3.3259753285e-13  (9.3824031773e-14,0.0000000000e+00)
0  3  2  0.0000000000e+00  0.0000000000e+00
0  3  2  0.0000000000e+00  1.1338356810e+01
0  3  2  0.0000000000e+00  7.5589045400e+00
0  3  3  1.6034857976e+01  0.0000000000e+00  -1.1338356810e+01  -1.1338356810e+01  2.8209479177e-01  9.0273540109e-18  (2.5465695500e-18,0.0000000000e+00)
0  3  3  0.0000000000e+00  0.0000000000e+00
0  3  3  0.0000000000e+00  1.1338356810e+01
0  3  3  0.0000000000e+00  1.1338356810e+01
1  -3  -3  1.6474250507e+01  -3.7794522700e+00  1.1338356810e+01  1.1338356810e+01  2.8209479177e-01  1.1022719706e-18  (3.1094518201e-19,0.0000000000e+00)
1  -3  -3  0.0000000000e+00  3.7794522700e+00
1  -3  -3  0.0000000000e+00  -1.1338356810e+01
1  -3  -3  0.0000000000e+00  -1.1338356810e+01
1  -3  -2  1.4141415504e+01  -3.7794522700e+00  1.1338356810e+01  7.5589045400e+00  2.8209479177e-01  4.0611339429e-14  (1.1456247340e-14,0.0000000000e+00)
1  -3  -2  0.0000000000e+00  3.7794522700e+00
1  -3  -2  0.0000000000e+00  -1.1338356810e+01
1  -3  -2  0.0000000000e+00  -7.5589045400e+00
1  -3  -1  1.2535025093e+01  -3.7794522700e+00  1.1338356810e+01  3.7794522700e+00  2.8209479177e-01  2.2308092838e-11  (6.2929968041e-12,0.0000000000e+00)
1  -3  -1  0.0000000000e+00  3.7794522700e+00
1  -3  -1  0.0000000000e+00  -1.1338356810e+01
1  -3  -1  0.0000000000e+00  -3.7794522700e+00
1  -3  0  1.1951677481e+01  -3.7794522700e+00  1.1338356810e+01  0.0000000000e+00  2.8209479177e-01  1.8269815143e-10  (5.1538196986e-11,0.0000000000e+00)
1  -3  0  0.0000000000e+00  3.7794522700e+00
1  -3  0  0.0000000000e+00  -1.1338356810e+01
1  -3  0  0.0000000000e+00  0.0000000000e+00
1  -3  1  1.2535025093e+01  -3.7794522700e+00  1.1338356810e+01  -3.7794522700e+00  2.8209479177e-01  2.2308092838e-11  (6.2929968041e-12,0.0000000000e+00)
1  -3  1  0.0000000000e+00  3.7794522700e+00
1  -3  1  0.0000000000e+00  -1.1338356810e+01
1  -3  1  0.0000000000e+00  3.7794522700e+00
1  -3  2  1.4141415504e+01  -3.7794522700e+00  1.1338356810e+01  -7.5589045400e+00  2.8209479177e-01  4.0611339429e-14  (1.1456247340e-14,0.0000000000e+00)
1  -3  2  0.0000000000e+00  3.7794522700e+00
1  -3  2  0.0000000000e+00  -1.1338356810e+01
1  -3  2  0.0000000000e+00  7.5589045400e+00
1  -3  3  1.6474250507e+01  -3.7794522700e+00  1.1338356810e+01  -1.1338356810e+01  2.8209479177e-01  1.1022719706e-18  (3.1094518201e-19,0.0000000000e+00)
1  -3  3  0.0000000000e+00  3.7794522700e+00
1  -3  3  0.0000000000e+00  -1.1338356810e+01
1  -3  3  0.0000000000e+00  1.1338356810e+01
1  -2  -3  1.4141415504e+01  -3.7794522700e+00  7.5589045400e+00  1.1338356810e+01  2.8209479177e-01  4.0611339429e-14  (1.1456247340e-14,0.0000000000e+00)
1  -2  -3  0.0000000000e+00  3.7794522700e+00
1  -2  -3  0.0000000000e+00  -7.5589045400e+00
1  -2  -3  0.0000000000e+00  -1.1338356810e+01
1  -2  -2  1.1338356810e+01  -3.7794522700e+00  7.5589045400e+00  7.5589045400e+00  2.8209479177e-01  1.4962558556e-09  (4.2208598403e-10,0.0000000000e+00)
1  -2  -2  0.0000000000e+00  3.7794522700e+00
1  -2  -2  0.0000000000e+00  -7.5589045400e+00
1  -2  -2  0.0000000000e+00  -7.5589045400e+00
1  -2  -1  9.2577295687e+00  -3.7794522700e+00  7.5589045400e+00  3.7794522700e+00  2.8209479177e-01  8.2190387778e-07  (2.3185480326e-07,0.0000000000e+00)
1  -2  -1  0.0000000000e+00  3.7794522700e+00
1  -2  -1  0.0000000000e+00  -7.5589045400e+00
1  -2  -1  0.0000000000e+00  -3.7794522700e+00
1  -2  0  8.4511121934e+00  -3.7794522700e+00  7.5589045400e+00  0.0000000000e+00  2.8209479177e-01  6.7312126423e-06  (1.8988400287e-06,0.0000000000e+00)
1  -2  0  0.0000000000e+00  3.7794522700e+00
1  -2  0  0.0000000000e+00  -7.5589045400e+00
1  -2  0  0.0000000000e+00  0.0000000000e+00
1  -2  1  9.2577295687e+00  -3.7794522700e+00  7.5589045400e+00  -3.7794522700e+00  2.8209479177e-01  8.2190387778e-07  (2.3185480326e-07,0.0000000000e+00)
1  -2  1  0.0000000000e+00  3.7794522700e+00
1  -2  1  0.0000000000e+00  -7.5589045400e+00
1  -2  1  0.0000000000e+00  3.7794522700e+00
1  -2  2  1.1338356810e+01  -3.7794522700e+00  7.5589045400e+00  -7.5589045400e+00  2.8209479177e-01  1.4962558556e-09  (4.2208598403e-10,0.0000000000e+00)
1  -2  2  0.0000000000e+00  3.7794522700e+00
1  -2  2  0.0000000000e+00  -7.5589045400e+00
1  -2  2  0.0000000000e+00  7.5589045400e+00
1  -2  3  1.4141415504e+01  -3.7794522700e+00  7.5589045400e+00  -1.1338356810e+01  2.8209479177e-01  4.0611339429e-14  (1.1456247340e-14,0.0000000000e+00)
1  -2  3  0.0000000000e+00  3.7794522700e+00
1  -2  3  0.0000000000e+00  -7.5589045400e+00
1  -2  3  0.0000000000e+00  1.1338356810e+01
1  -1  -3  1.2535025093e+01  -3.7794522700e+00  3.7794522700e+00  1.1338356810e+01  2.8209479177e-01  2.2308092838e-11  (6.2929968041e-12,0.0000000000e+00)
1  -1  -3  0.0000000000e+00  3.7794522700e+00
1  -1  -3  0.0000000000e+00  -3.7794522700e+00
1  -1  -3  0.0000000000e+00  -1.1338356810e+01
1  -1  -2  9.2577295687e+00  -3.7794522700e+00  3.7794522700e+00  7.5589045400e+00  2.8209479177e-01  8.2190387778e-07  (2.3185480326e-07,0.0000000000e+00)
1  -1  -2  0.0000000000e+00  3.7794522700e+00
1  -1  -2  0.0000000000e+00  -3.7794522700e+00
1  -1  -2  0.0000000000e+00  -7.5589045400e+00
1  -1  -1  6.5462033564e+00  -3.7794522700e+00  3.7794522700e+00  3.7794522700e+00  2.8209479177e-01  4.5165066210e-04  (1.2740829948e-04,0.0000000000e+00)
1  -1  -1  0.0000000000e+00  3.7794522700e+00
1  -1  -1  0.0000000000e+00  -3.7794522700e+00
1  -1  -1  0.0000000000e+00  -3.7794522700e+00
1  -1  0  5.3449526586e+00  -3.7794522700e+00  3.7794522700e+00  0.0000000000e+00  2.8209479177e-01  3.7209743993e-03  (1.0496674984e-03,0.0000000000e+00)
1  -1  0  0.0000000000e+00  3.7794522700e+00
1  -1  0  0.0000000000e+00  -3.7794522700e+00
1  -1  0  0.0000000000e+00  0.0000000000e+00
1  -1  1  6.5462033564e+00  -3.7794522700e+00  3.7794522700e+00  -3.7794522700e+00  2.8209479177e-01  4.5165066210e-04  (1.2740829948e-04,0.0000000000e+00)
1  -1  1  0.0000000000e+00  3.7794522700e+00
1  -1  1  0.0000000000e+00  -3.7794522700e+00
1  -1  1  0.0000000000e+00  3.7794522700e+00
1  -1  2  9.2577295687e+00  -3.7794522700e+00  3.7794522700e+00  -7.5589045400e+00  2.8209479177e-01  8.2190387778e-07  (2.3185480326e-07,0.0000000000e+00)
1  -1  2  0.0000000000e+00  3.7794522700e+00
1  -1  2  0.0000000000e+00  -3.7794522700e+00
1  -1  2  0.0000000000e+00  7.5589045400e+00
1  -1  3  1.2535025093e+01  -3.7794522700e+00  3.7794522700e+00  -1.1338356810e+01  2.8209479177e-01  2.2308092838e-11  (6.2929968041e-12,0.0000000000e+00)
1  -1  3  0.0000000000e+00  3.7794522700e+00
1  -1  3  0.0000000000e+00  -3.7794522700e+00
1  -1  3  0.0000000000e+00  1.1338356810e+01
1  0  -3  1.1951677481e+01  -3.7794522700e+00  0.0000000000e+00  1.1338356810e+01  2.8209479177e-01  1.8269815143e-10  (5.1538196986e-11,0.0000000000e+00)
1  0  -3  0.0000000000e+00  3.7794522700e+00
1  0  -3  0.0000000000e+00  0.0000000000e+00
1  0  -3  0.0000000000e+00  -1.1338356810e+01
1  0  -2  8.4511121934e+00  -3.7794522700e+00  0.0000000000e+00  7.5589045400e+00  2.8209479177e-01  6.7312126423e-06  (1.8988400287e-06,0.0000000000e+00)
1  0  -2  0.0000000000e+00  3.7794522700e+00
1  0  -2  0.0000000000e+00  0.0000000000e+00
1  0  -2  0.0000000000e+00  -7.5589045400e+00
1  0  -1  5.3449526586e+00  -3.7794522700e+00  0.0000000000e+00  3.7794522700e+00  2.8209479177e-01  3.7209743993e-03  (1.0496674984e-03,0.0000000000e+00)
1  0  -1  0.0000000000e+00  3.7794522700e+00
1  0  -1  0.0000000000e+00  0.0000000000e+00
1  0  -1  0.0000000000e+00  -3.7794522700e+00
1  0  0  3.7794522700e+00  -3.7794522700e+00  0.0000000000e+00  0.0000000000e+00  2.8209479177e-01  3.3469399013e-02  (9.4415431454e-03,0.0000000000e+00)
1  0  0  0.0000000000e+00  3.7794522700e+00
1  0  0  0.0000000000e+00  0.0000000000e+00
1  0  0  0.0000000000e+00  0.0000000000e+00
1  0  1  5.3449526586e+00  -3.7794522700e+00  0.0000000000e+00  -3.7794522700e+00  2.8209479177e-01  3.7209743993e-03  (1.0496674984e-03,0.0000000000e+00)
1  0  1  0.0000000000e+00  3.7794522700e+00
1  0  1  0.0000000000e+00  0.0000000000e+00
1  0  1  0.0000000000e+00  3.7794522700e+00
1  0  2  8.4511121934e+00  -3.7794522700e+00  0.0000000000e+00  -7.5589045400e+00  2.8209479177e-01  6.7312126423e-06  (1.8988400287e-06,0.0000000000e+00)
1  0  2  0.0000000000e+00  3.7794522700e+00
1  0  2  0.0000000000e+00  0.0000000000e+00
1  0  2  0.0000000000e+00  7.5589045400e+00
1  0  3  1.1951677481e+01  -3.7794522700e+00  0.0000000000e+00  -1.1338356810e+01  2.8209479177e-01  1.8269815143e-10  (5.1538196986e-11,0.0000000000e+00)
1  0  3  0.0000000000e+00  3.7794522700e+00
1  0  3  0.0000000000e+00  0.0000000000e+00
1  0  3  0.0000000000e+00  1.1338356810e+01
1  1  -3  1.2535025093e+01  -3.7794522700e+00  -3.7794522700e+00  1.1338356810e+01  2.8209479177e-01  2.2308092838e-11  (6.2929968041e-12,0.0000000000e+00)
1  1  -3  0.0000000000e+00  3.7794522700e+00
1  1  -3  0.0000000000e+00  3.7794522700e+00
1  1  -3  0.0000000000e+00  -1.1338356810e+01
1  1  -2  9.2577295687e+00  -3.7794522700e+00  -3.7794522700e+00  7.5589045400e+00  2.8209479177e-01  8.2190387778e-07  (2.3185480326e-07,0.0000000000e+00)
1  1  -2  0.0000000000e+00  3.7794522700e+00
1  1  -2  0.0000000000e+00  3.7794522700e+00
1  1  -2  0.0000000000e+00  -7.5589045400e+00
1  1  -1  6.5462033564e+00  -3.7794522700e+00  -3.7794522700e+00  3.7794522700e+00  2.8209479177e-01  4.5165066210e-04  (1.2740829948e-04,0.0000000000e+00)
1  1  -1  0.0000000000e+00  3.7794522700e+00
1  1  -1  0.0000000000e+00  3.7794522700e+00
1  1  -1  0.0000000000e+00  -3.7794522700e+00
1  1  0  5.3449526586e+00  -3.7794522700e+00  -3.7794522700e+00  0.0000000000e+00  2.8209479177e-01  3.7209743993e-03  (1.0496674984e-03,0.0000000000e+00)
1  1  0  0.0000000000e+00  3.7794522700e+00
1  1  0  0.0000000000e+00  3.7794522700e+00
1  1  0  0.0000000000e+00  0.0000000000e+00
1  1  1  6.5462033564e+00  -3.7794522700e+00  -3.7794522700e+00  -3.7794522700e+00  2.8209479177e-01  4.5165066210e-04  (1.2740829948e-04,0.0000000000e+00)
1  1  1  0.0000000000e+00  3.7794522700e+00
1  1  1  0.0000000000e+00  3.7794522700e+00
1  1  1  0.0000000000e+00  3.7794522700e+00
1  1  2  9.2577295687e+00  -3.7794522700e+00  -3.7794522700e+00  -7.5589045400e+00  2.8209479177e-01  8.2190387778e-07  (2.3185480326e-07,0.0000000000e+00)
1  1  2  0.0000000000e+00  3.7794522700e+00
1  1  2  0.0000000000e+00  3.7794522700e+00
1  1  2  0.0000000000e+00  7.5589045400e+00
[...]
2  1  -2  0.0000000000e+00  3.7794522700e+00
2  1  -2  0.0000000000e+00  -7.5589045400e+00
2  1  -1  9.2577295687e+00  -7.5589045400e+00  -3.7794522700e+00  3.7794522700e+00  2.8209479177e-01  8.2190387778e-07  (2.3185480326e-07,0.0000000000e+00)
2  1  -1  0.0000000000e+00  7.5589045400e+00
2  1  -1  0.0000000000e+00  3.7794522700e+00
2  1  -1  0.0000000000e+00  -3.7794522700e+00
2  1  0  8.4511121934e+00  -7.5589045400e+00  -3.7794522700e+00  0.0000000000e+00  2.8209479177e-01  6.7312126423e-06  (1.8988400287e-06,0.0000000000e+00)
2  1  0  0.0000000000e+00  7.5589045400e+00
2  1  0  0.0000000000e+00  3.7794522700e+00
2  1  0  0.0000000000e+00  0.0000000000e+00
2  1  1  9.2577295687e+00  -7.5589045400e+00  -3.7794522700e+00  -3.7794522700e+00  2.8209479177e-01  8.2190387778e-07  (2.3185480326e-07,0.0000000000e+00)
2  1  1  0.0000000000e+00  7.5589045400e+00
2  1  1  0.0000000000e+00  3.7794522700e+00
2  1  1  0.0000000000e+00  3.7794522700e+00
2  1  2  1.1338356810e+01  -7.5589045400e+00  -3.7794522700e+00  -7.5589045400e+00  2.8209479177e-01  1.4962558556e-09  (4.2208598403e-10,0.0000000000e+00)
2  1  2  0.0000000000e+00  7.5589045400e+00
2  1  2  0.0000000000e+00  3.7794522700e+00
2  1  2  0.0000000000e+00  7.5589045400e+00
2  1  3  1.4141415504e+01  -7.5589045400e+00  -3.7794522700e+00  -1.1338356810e+01  2.8209479177e-01  4.0611339429e-14  (1.1456247340e-14,0.0000000000e+00)
2  1  3  0.0000000000e+00  7.5589045400e+00
2  1  3  0.0000000000e+00  3.7794522700e+00
2  1  3  0.0000000000e+00  1.1338356810e+01
2  2  -3  1.5583080916e+01  -7.5589045400e+00  -7.5589045400e+00  1.1338356810e+01  2.8209479177e-01  7.3931953853e-17  (2.0855819128e-17,0.0000000000e+00)
2  2  -3  0.0000000000e+00  7.5589045400e+00
2  2  -3  0.0000000000e+00  7.5589045400e+00
2  2  -3  0.0000000000e+00  -1.1338356810e+01
2  2  -2  1.3092406713e+01  -7.5589045400e+00  -7.5589045400e+00  7.5589045400e+00  2.8209479177e-01  2.7238973257e-12  (7.6839724890e-13,0.0000000000e+00)
2  2  -2  0.0000000000e+00  7.5589045400e+00
2  2  -2  0.0000000000e+00  7.5589045400e+00
2  2  -2  0.0000000000e+00  -7.5589045400e+00
2  2  -1  1.1338356810e+01  -7.5589045400e+00  -7.5589045400e+00  3.7794522700e+00  2.8209479177e-01  1.4962558556e-09  (4.2208598403e-10,0.0000000000e+00)
2  2  -1  0.0000000000e+00  7.5589045400e+00
2  2  -1  0.0000000000e+00  7.5589045400e+00
2  2  -1  0.0000000000e+00  -3.7794522700e+00
2  2  0  1.0689905317e+01  -7.5589045400e+00  -7.5589045400e+00  0.0000000000e+00  2.8209479177e-01  1.2253991453e-08  (3.4567871673e-09,0.0000000000e+00)
2  2  0  0.0000000000e+00  7.5589045400e+00
2  2  0  0.0000000000e+00  7.5589045400e+00
2  2  0  0.0000000000e+00  0.0000000000e+00
2  2  1  1.1338356810e+01  -7.5589045400e+00  -7.5589045400e+00  -3.7794522700e+00  2.8209479177e-01  1.4962558556e-09  (4.2208598403e-10,0.0000000000e+00)
2  2  1  0.0000000000e+00  7.5589045400e+00
2  2  1  0.0000000000e+00  7.5589045400e+00
2  2  1  0.0000000000e+00  3.7794522700e+00
2  2  2  1.3092406713e+01  -7.5589045400e+00  -7.5589045400e+00  -7.5589045400e+00  2.8209479177e-01  2.7238973257e-12  (7.6839724890e-13,0.0000000000e+00)
2  2  2  0.0000000000e+00  7.5589045400e+00
2  2  2  0.0000000000e+00  7.5589045400e+00
2  2  2  0.0000000000e+00  7.5589045400e+00
2  2  3  1.5583080916e+01  -7.5589045400e+00  -7.5589045400e+00  -1.1338356810e+01  2.8209479177e-01  7.3931953853e-17  (2.0855819128e-17,0.0000000000e+00)
2  2  3  0.0000000000e+00  7.5589045400e+00
2  2  3  0.0000000000e+00  7.5589045400e+00
2  2  3  0.0000000000e+00  1.1338356810e+01
2  3  -3  1.7727202491e+01  -7.5589045400e+00  -1.1338356810e+01  1.1338356810e+01  2.8209479177e-01  2.0066592645e-21  (5.6606812738e-22,0.0000000000e+00)
2  3  -3  0.0000000000e+00  7.5589045400e+00
2  3  -3  0.0000000000e+00  1.1338356810e+01
2  3  -3  0.0000000000e+00  -1.1338356810e+01
2  3  -2  1.5583080916e+01  -7.5589045400e+00  -1.1338356810e+01  7.5589045400e+00  2.8209479177e-01  7.3931953853e-17  (2.0855819128e-17,0.0000000000e+00)
2  3  -2  0.0000000000e+00  7.5589045400e+00
2  3  -2  0.0000000000e+00  1.1338356810e+01
2  3  -2  0.0000000000e+00  -7.5589045400e+00
2  3  -1  1.4141415504e+01  -7.5589045400e+00  -1.1338356810e+01  3.7794522700e+00  2.8209479177e-01  4.0611339429e-14  (1.1456247340e-14,0.0000000000e+00)
2  3  -1  0.0000000000e+00  7.5589045400e+00
2  3  -1  0.0000000000e+00  1.1338356810e+01
2  3  -1  0.0000000000e+00  -3.7794522700e+00
2  3  0  1.3627008953e+01  -7.5589045400e+00  -1.1338356810e+01  0.0000000000e+00  2.8209479177e-01  3.3259753285e-13  (9.3824031773e-14,0.0000000000e+00)
2  3  0  0.0000000000e+00  7.5589045400e+00
2  3  0  0.0000000000e+00  1.1338356810e+01
2  3  0  0.0000000000e+00  0.0000000000e+00
2  3  1  1.4141415504e+01  -7.5589045400e+00  -1.1338356810e+01  -3.7794522700e+00  2.8209479177e-01  4.0611339429e-14  (1.1456247340e-14,0.0000000000e+00)
2  3  1  0.0000000000e+00  7.5589045400e+00
2  3  1  0.0000000000e+00  1.1338356810e+01
2  3  1  0.0000000000e+00  3.7794522700e+00
2  3  2  1.5583080916e+01  -7.5589045400e+00  -1.1338356810e+01  -7.5589045400e+00  2.8209479177e-01  7.3931953853e-17  (2.0855819128e-17,0.0000000000e+00)
2  3  2  0.0000000000e+00  7.5589045400e+00
2  3  2  0.0000000000e+00  1.1338356810e+01
2  3  2  0.0000000000e+00  7.5589045400e+00
2  3  3  1.7727202491e+01  -7.5589045400e+00  -1.1338356810e+01  -1.1338356810e+01  2.8209479177e-01  2.0066592645e-21  (5.6606812738e-22,0.0000000000e+00)
2  3  3  0.0000000000e+00  7.5589045400e+00
2  3  3  0.0000000000e+00  1.1338356810e+01
2  3  3  0.0000000000e+00  1.1338356810e+01
3  -3  -3  1.9638610069e+01  -1.1338356810e+01  1.1338356810e+01  1.1338356810e+01  2.8209479177e-01  5.4464696209e-26  (1.5364207136e-26,0.0000000000e+00)
3  -3  -3  0.0000000000e+00  1.1338356810e+01
3  -3  -3  0.0000000000e+00  -1.1338356810e+01
3  -3  -3  0.0000000000e+00  -1.1338356810e+01
3  -3  -2  1.7727202491e+01  -1.1338356810e+01  1.1338356810e+01  7.5589045400e+00  2.8209479177e-01  2.0066592645e-21  (5.6606812738e-22,0.0000000000e+00)
3  -3  -2  0.0000000000e+00  1.1338356810e+01
3  -3  -2  0.0000000000e+00  -1.1338356810e+01
3  -3  -2  0.0000000000e+00  -7.5589045400e+00
3  -3  -1  1.6474250507e+01  -1.1338356810e+01  1.1338356810e+01  3.7794522700e+00  2.8209479177e-01  1.1022719706e-18  (3.1094518201e-19,0.0000000000e+00)
3  -3  -1  0.0000000000e+00  1.1338356810e+01
3  -3  -1  0.0000000000e+00  -1.1338356810e+01
3  -3  -1  0.0000000000e+00  -3.7794522700e+00
3  -3  0  1.6034857976e+01  -1.1338356810e+01  1.1338356810e+01  0.0000000000e+00  2.8209479177e-01  9.0273540109e-18  (2.5465695500e-18,0.0000000000e+00)
3  -3  0  0.0000000000e+00  1.1338356810e+01
3  -3  0  0.0000000000e+00  -1.1338356810e+01
3  -3  0  0.0000000000e+00  0.0000000000e+00
3  -3  1  1.6474250507e+01  -1.1338356810e+01  1.1338356810e+01  -3.7794522700e+00  2.8209479177e-01  1.1022719706e-18  (3.1094518201e-19,0.0000000000e+00)
3  -3  1  0.0000000000e+00  1.1338356810e+01
3  -3  1  0.0000000000e+00  -1.1338356810e+01
3  -3  1  0.0000000000e+00  3.7794522700e+00
3  -3  2  1.7727202491e+01  -1.1338356810e+01  1.1338356810e+01  -7.5589045400e+00  2.8209479177e-01  2.0066592645e-21  (5.6606812738e-22,0.0000000000e+00)
3  -3  2  0.0000000000e+00  1.1338356810e+01
3  -3  2  0.0000000000e+00  -1.1338356810e+01
3  -3  2  0.0000000000e+00  7.5589045400e+00
3  -3  3  1.9638610069e+01  -1.1338356810e+01  1.1338356810e+01  -1.1338356810e+01  2.8209479177e-01  5.4464696209e-26  (1.5364207136e-26,0.0000000000e+00)
3  -3  3  0.0000000000e+00  1.1338356810e+01
3  -3  3  0.0000000000e+00  -1.1338356810e+01
3  -3  3  0.0000000000e+00  1.1338356810e+01
3  -2  -3  1.7727202491e+01  -1.1338356810e+01  7.5589045400e+00  1.1338356810e+01  2.8209479177e-01  2.0066592645e-21  (5.6606812738e-22,0.0000000000e+00)
3  -2  -3  0.0000000000e+00  1.1338356810e+01
3  -2  -3  0.0000000000e+00  -7.5589045400e+00
3  -2  -3  0.0000000000e+00  -1.1338356810e+01
3  -2  -2  1.5583080916e+01  -1.1338356810e+01  7.5589045400e+00  7.5589045400e+00  2.8209479177e-01  7.3931953853e-17  (2.0855819128e-17,0.0000000000e+00)
3  -2  -2  0.0000000000e+00  1.1338356810e+01
3  -2  -2  0.0000000000e+00  -7.5589045400e+00
3  -2  -2  0.0000000000e+00  -7.5589045400e+00
3  -2  -1  1.4141415504e+01  -1.1338356810e+01  7.5589045400e+00  3.7794522700e+00  2.8209479177e-01  4.0611339429e-14  (1.1456247340e-14,0.0000000000e+00)
3  -2  -1  0.0000000000e+00  1.1338356810e+01
3  -2  -1  0.0000000000e+00  -7.5589045400e+00
3  -2  -1  0.0000000000e+00  -3.7794522700e+00
3  -2  0  1.3627008953e+01  -1.1338356810e+01  7.5589045400e+00  0.0000000000e+00  2.8209479177e-01  3.3259753285e-13  (9.3824031773e-14,0.0000000000e+00)
3  -2  0  0.0000000000e+00  1.1338356810e+01
3  -2  0  0.0000000000e+00  -7.5589045400e+00
3  -2  0  0.0000000000e+00  0.0000000000e+00
3  -2  1  1.4141415504e+01  -1.1338356810e+01  7.5589045400e+00  -3.7794522700e+00  2.8209479177e-01  4.0611339429e-14  (1.1456247340e-14,0.0000000000e+00)
3  -2  1  0.0000000000e+00  1.1338356810e+01
3  -2  1  0.0000000000e+00  -7.5589045400e+00
3  -2  1  0.0000000000e+00  3.7794522700e+00
3  -2  2  1.5583080916e+01  -1.1338356810e+01  7.5589045400e+00  -7.5589045400e+00  2.8209479177e-01  7.3931953853e-17  (2.0855819128e-17,0.0000000000e+00)
3  -2  2  0.0000000000e+00  1.1338356810e+01
3  -2  2  0.0000000000e+00  -7.5589045400e+00
3  -2  2  0.0000000000e+00  7.5589045400e+00
3  -2  3  1.7727202491e+01  -1.1338356810e+01  7.5589045400e+00  -1.1338356810e+01  2.8209479177e-01  2.0066592645e-21  (5.6606812738e-22,0.0000000000e+00)
3  -2  3  0.0000000000e+00  1.1338356810e+01
3  -2  3  0.0000000000e+00  -7.5589045400e+00
3  -2  3  0.0000000000e+00  1.1338356810e+01
3  -1  -3  1.6474250507e+01  -1.1338356810e+01  3.7794522700e+00  1.1338356810e+01  2.8209479177e-01  1.1022719706e-18  (3.1094518201e-19,0.0000000000e+00)
3  -1  -3  0.0000000000e+00  1.1338356810e+01
3  -1  -3  0.0000000000e+00  -3.7794522700e+00
3  -1  -3  0.0000000000e+00  -1.1338356810e+01
3  -1  -2  1.4141415504e+01  -1.1338356810e+01  3.7794522700e+00  7.5589045400e+00  2.8209479177e-01  4.0611339429e-14  (1.1456247340e-14,0.0000000000e+00)
3  -1  -2  0.0000000000e+00  1.1338356810e+01
3  -1  -2  0.0000000000e+00  -3.7794522700e+00
3  -1  -2  0.0000000000e+00  -7.5589045400e+00
3  -1  -1  1.2535025093e+01  -1.1338356810e+01  3.7794522700e+00  3.7794522700e+00  2.8209479177e-01  2.2308092838e-11  (6.2929968041e-12,0.0000000000e+00)
3  -1  -1  0.0000000000e+00  1.1338356810e+01
3  -1  -1  0.0000000000e+00  -3.7794522700e+00
3  -1  -1  0.0000000000e+00  -3.7794522700e+00
3  -1  0  1.1951677481e+01  -1.1338356810e+01  3.7794522700e+00  0.0000000000e+00  2.8209479177e-01  1.8269815143e-10  (5.1538196986e-11,0.0000000000e+00)
3  -1  0  0.0000000000e+00  1.1338356810e+01
3  -1  0  0.0000000000e+00  -3.7794522700e+00
3  -1  0  0.0000000000e+00  0.0000000000e+00
3  -1  1  1.2535025093e+01  -1.1338356810e+01  3.7794522700e+00  -3.7794522700e+00  2.8209479177e-01  2.2308092838e-11  (6.2929968041e-12,0.0000000000e+00)
3  -1  1  0.0000000000e+00  1.1338356810e+01
3  -1  1  0.0000000000e+00  -3.7794522700e+00
3  -1  1  0.0000000000e+00  3.7794522700e+00
3  -1  2  1.4141415504e+01  -1.1338356810e+01  3.7794522700e+00  -7.5589045400e+00  2.8209479177e-01  4.0611339429e-14  (1.1456247340e-14,0.0000000000e+00)
3  -1  2  0.0000000000e+00  1.1338356810e+01
3  -1  2  0.0000000000e+00  -3.7794522700e+00
3  -1  2  0.0000000000e+00  7.5589045400e+00
3  -1  3  1.6474250507e+01  -1.1338356810e+01  3.7794522700e+00  -1.1338356810e+01  2.8209479177e-01  1.1022719706e-18  (3.1094518201e-19,0.0000000000e+00)
3  -1  3  0.0000000000e+00  1.1338356810e+01
3  -1  3  0.0000000000e+00  -3.7794522700e+00
3  -1  3  0.0000000000e+00  1.1338356810e+01
3  0  -3  1.6034857976e+01  -1.1338356810e+01  0.0000000000e+00  1.1338356810e+01  2.8209479177e-01  9.0273540109e-18  (2.5465695500e-18,0.0000000000e+00)
3  0  -3  0.0000000000e+00  1.1338356810e+01
3  0  -3  0.0000000000e+00  0.0000000000e+00
3  0  -3  0.0000000000e+00  -1.1338356810e+01
3  0  -2  1.3627008953e+01  -1.1338356810e+01  0.0000000000e+00  7.5589045400e+00  2.8209479177e-01  3.3259753285e-13  (9.3824031773e-14,0.0000000000e+00)
3  0  -2  0.0000000000e+00  1.1338356810e+01
3  0  -2  0.0000000000e+00  0.0000000000e+00
3  0  -2  0.0000000000e+00  -7.5589045400e+00
3  0  -1  1.1951677481e+01  -1.1338356810e+01  0.0000000000e+00  3.7794522700e+00  2.8209479177e-01  1.8269815143e-10  (5.1538196986e-11,0.0000000000e+00)
3  0  -1  0.0000000000e+00  1.1338356810e+01
3  0  -1  0.0000000000e+00  0.0000000000e+00
3  0  -1  0.0000000000e+00  -3.7794522700e+00
3  0  0  1.1338356810e+01  -1.1338356810e+01  0.0000000000e+00  0.0000000000e+00  2.8209479177e-01  1.4962558556e-09  (4.2208598403e-10,0.0000000000e+00)
3  0  0  0.0000000000e+00  1.1338356810e+01
3  0  0  0.0000000000e+00  0.0000000000e+00
3  0  0  0.0000000000e+00  0.0000000000e+00
3  0  1  1.1951677481e+01  -1.1338356810e+01  0.0000000000e+00  -3.7794522700e+00  2.8209479177e-01  1.8269815143e-10  (5.1538196986e-11,0.0000000000e+00)
3  0  1  0.0000000000e+00  1.1338356810e+01
3  0  1  0.0000000000e+00  0.0000000000e+00
3  0  1  0.0000000000e+00  3.7794522700e+00
3  0  2  1.3627008953e+01  -1.1338356810e+01  0.0000000000e+00  -7.5589045400e+00  2.8209479177e-01  3.3259753285e-13  (9.3824031773e-14,0.0000000000e+00)
3  0  2  0.0000000000e+00  1.1338356810e+01
3  0  2  0.0000000000e+00  0.0000000000e+00
3  0  2  0.0000000000e+00  7.5589045400e+00
3  0  3  1.6034857976e+01  -1.1338356810e+01  0.0000000000e+00  -1.1338356810e+01  2.8209479177e-01  9.0273540109e-18  (2.5465695500e-18,0.0000000000e+00)
3  0  3  0.0000000000e+00  1.1338356810e+01
3  0  3  0.0000000000e+00  0.0000000000e+00
3  0  3  0.0000000000e+00  1.1338356810e+01
3  1  -3  1.6474250507e+01  -1.1338356810e+01  -3.7794522700e+00  1.1338356810e+01  2.8209479177e-01  1.1022719706e-18  (3.1094518201e-19,0.0000000000e+00)
3  1  -3  0.0000000000e+00  1.1338356810e+01
3  1  -3  0.0000000000e+00  3.7794522700e+00
3  1  -3  0.0000000000e+00  -1.1338356810e+01
3  1  -2  1.4141415504e+01  -1.1338356810e+01  -3.7794522700e+00  7.5589045400e+00  2.8209479177e-01  4.0611339429e-14  (1.1456247340e-14,0.0000000000e+00)
3  1  -2  0.0000000000e+00  1.1338356810e+01
3  1  -2  0.0000000000e+00  3.7794522700e+00
3  1  -2  0.0000000000e+00  -7.5589045400e+00
3  1  -1  1.2535025093e+01  -1.1338356810e+01  -3.7794522700e+00  3.7794522700e+00  2.8209479177e-01  2.2308092838e-11  (6.2929968041e-12,0.0000000000e+00)
3  1  -1  0.0000000000e+00  1.1338356810e+01
3  1  -1  0.0000000000e+00  3.7794522700e+00
3  1  -1  0.0000000000e+00  -3.7794522700e+00
3  1  0  1.1951677481e+01  -1.1338356810e+01  -3.7794522700e+00  0.0000000000e+00  2.8209479177e-01  1.8269815143e-10  (5.1538196986e-11,0.0000000000e+00)
3  1  0  0.0000000000e+00  1.1338356810e+01
3  1  0  0.0000000000e+00  3.7794522700e+00
3  1  0  0.0000000000e+00  0.0000000000e+00
3  1  1  1.2535025093e+01  -1.1338356810e+01  -3.7794522700e+00  -3.7794522700e+00  2.8209479177e-01  2.2308092838e-11  (6.2929968041e-12,0.0000000000e+00)
3  1  1  0.0000000000e+00  1.1338356810e+01
3  1  1  0.0000000000e+00  3.7794522700e+00
3  1  1  0.0000000000e+00  3.7794522700e+00
3  1  2  1.4141415504e+01  -1.1338356810e+01  -3.7794522700e+00  -7.5589045400e+00  2.8209479177e-01  4.0611339429e-14  (1.1456247340e-14,0.0000000000e+00)
3  1  2  0.0000000000e+00  1.1338356810e+01
3  1  2  0.0000000000e+00  3.7794522700e+00
3  1  2  0.0000000000e+00  7.5589045400e+00
3  1  3  1.6474250507e+01  -1.1338356810e+01  -3.7794522700e+00  -1.1338356810e+01  2.8209479177e-01  1.1022719706e-18  (3.1094518201e-19,0.0000000000e+00)
3  1  3  0.0000000000e+00  1.1338356810e+01
3  1  3  0.0000000000e+00  3.7794522700e+00
3  1  3  0.0000000000e+00  1.1338356810e+01
3  2  -3  1.7727202491e+01  -1.1338356810e+01  -7.5589045400e+00  1.1338356810e+01  2.8209479177e-01  2.0066592645e-21  (5.6606812738e-22,0.0000000000e+00)
3  2  -3  0.0000000000e+00  1.1338356810e+01
3  2  -3  0.0000000000e+00  7.5589045400e+00
3  2  -3  0.0000000000e+00  -1.1338356810e+01
3  2  -2  1.5583080916e+01  -1.1338356810e+01  -7.5589045400e+00  7.5589045400e+00  2.8209479177e-01  7.3931953853e-17  (2.0855819128e-17,0.0000000000e+00)
3  2  -2  0.0000000000e+00  1.1338356810e+01
3  2  -2  0.0000000000e+00  7.5589045400e+00
3  2  -2  0.0000000000e+00  -7.5589045400e+00
3  2  -1  1.4141415504e+01  -1.1338356810e+01  -7.5589045400e+00  3.7794522700e+00  2.8209479177e-01  4.0611339429e-14  (1.1456247340e-14,0.0000000000e+00)
3  2  -1  0.0000000000e+00  1.1338356810e+01
3  2  -1  0.0000000000e+00  7.5589045400e+00
3  2  -1  0.0000000000e+00  -3.7794522700e+00
3  2  0  1.3627008953e+01  -1.1338356810e+01  -7.5589045400e+00  0.0000000000e+00  2.8209479177e-01  3.3259753285e-13  (9.3824031773e-14,0.0000000000e+00)
3  2  0  0.0000000000e+00  1.1338356810e+01
3  2  0  0.0000000000e+00  7.5589045400e+00
3  2  0  0.0000000000e+00  0.0000000000e+00
3  2  1  1.4141415504e+01  -1.1338356810e+01  -7.5589045400e+00  -3.7794522700e+00  2.8209479177e-01  4.0611339429e-14  (1.1456247340e-14,0.0000000000e+00)
3  2  1  0.0000000000e+00  1.1338356810e+01
3  2  1  0.0000000000e+00  7.5589045400e+00
3  2  1  0.0000000000e+00  3.7794522700e+00
3  2  2  1.5583080916e+01  -1.1338356810e+01  -7.5589045400e+00  -7.5589045400e+00  2.8209479177e-01  7.3931953853e-17  (2.0855819128e-17,0.0000000000e+00)
3  2  2  0.0000000000e+00  1.1338356810e+01
3  2  2  0.0000000000e+00  7.5589045400e+00
3  2  2  0.0000000000e+00  7.5589045400e+00
3  2  3  1.7727202491e+01  -1.1338356810e+01  -7.5589045400e+00  -1.1338356810e+01  2.8209479177e-01  2.0066592645e-21  (5.6606812738e-22,0.0000000000e+00)
3  2  3  0.0000000000e+00  1.1338356810e+01
3  2  3  0.0000000000e+00  7.5589045400e+00
3  2  3  0.0000000000e+00  1.1338356810e+01
3  3  -3  1.9638610069e+01  -1.1338356810e+01  -1.1338356810e+01  1.1338356810e+01  2.8209479177e-01  5.4464696209e-26  (1.5364207136e-26,0.0000000000e+00)
3  3  -3  0.0000000000e+00  1.1338356810e+01
3  3  -3  0.0000000000e+00  1.1338356810e+01
3  3  -3  0.0000000000e+00  -1.1338356810e+01
3  3  -2  1.7727202491e+01  -1.1338356810e+01  -1.1338356810e+01  7.5589045400e+00  2.8209479177e-01  2.0066592645e-21  (5.6606812738e-22,0.0000000000e+00)
3  3  -2  0.0000000000e+00  1.1338356810e+01
3  3  -2  0.0000000000e+00  1.1338356810e+01
3  3  -2  0.0000000000e+00  -7.5589045400e+00
3  3  -1  1.6474250507e+01  -1.1338356810e+01  -1.1338356810e+01  3.7794522700e+00  2.8209479177e-01  1.1022719706e-18  (3.1094518201e-19,0.0000000000e+00)
3  3  -1  0.0000000000e+00  1.1338356810e+01
3  3  -1  0.0000000000e+00  1.1338356810e+01
3  3  -1  0.0000000000e+00  -3.7794522700e+00
3  3  0  1.6034857976e+01  -1.1338356810e+01  -1.1338356810e+01  0.0000000000e+00  2.8209479177e-01  9.0273540109e-18  (2.5465695500e-18,0.0000000000e+00)
3  3  0  0.0000000000e+00  1.1338356810e+01
3  3  0  0.0000000000e+00  1.1338356810e+01
3  3  0  0.0000000000e+00  0.0000000000e+00
3  3  1  1.6474250507e+01  -1.1338356810e+01  -1.1338356810e+01  -3.7794522700e+00  2.8209479177e-01  1.1022719706e-18  (3.1094518201e-19,0.0000000000e+00)
3  3  1  0.0000000000e+00  1.1338356810e+01
3  3  1  0.0000000000e+00  1.1338356810e+01
3  3  1  0.0000000000e+00  3.7794522700e+00
3  3  2  1.7727202491e+01  -1.1338356810e+01  -1.1338356810e+01  -7.5589045400e+00  2.8209479177e-01  2.0066592645e-21  (5.6606812738e-22,0.0000000000e+00)
3  3  2  0.0000000000e+00  1.1338356810e+01
3  3  2  0.0000000000e+00  1.1338356810e+01
3  3  2  0.0000000000e+00  7.5589045400e+00
3  3  3  1.9638610069e+01  -1.1338356810e+01  -1.1338356810e+01  -1.1338356810e+01  2.8209479177e-01  5.4464696209e-26  (1.5364207136e-26,0.0000000000e+00)
3  3  3  0.0000000000e+00  1.1338356810e+01
3  3  3  0.0000000000e+00  1.1338356810e+01
3  3  3  0.0000000000e+00  1.1338356810e+01
 -1.0000000000e+00 6.0000000000e+00  6.0000000000e+00  6.0000000000e+00   6.2387677514e-01 0.0000000000e+00
